LAMMPS (29 Sep 2021 - Update 2)
OMP_NUM_THREADS environment is not set. Defaulting to 1 thread. (src/comm.cpp:98)
  using 1 OpenMP thread(s) per MPI task

units	metal
atom_style atomic
boundary    p p p
newton off
#neighbor 1.0 bin
neigh_modify delay 0 every 1 check yes
#neigh_modify once no every 1 delay 0 check yes

box tilt large
read_data tob11_ref_deepmd.data
Reading data file ...
  triclinic box = (0.0000000 0.0000000 0.0000000) to (6.8037000 6.1848150 22.405446) with tilt (2.6646871 0.29402869 -0.26981789)
  1 by 1 by 1 MPI processor grid
  reading atoms ...
  88 atoms
  read_data CPU = 0.001 seconds

pair_style	nequip
pair_coeff	* * tob11_l3-deployed.pth Ca H O Si
mass            1 40.079800
mass            4 28.08500
mass            3 15.9994
mass            2 1.00794


#kspace_style    ewald 1.0e-6

velocity all create 300 4928459 rot yes dist gaussian #温度初始化
timestep 0.001

thermo 100
thermo_style  custom step temp press etotal lx ly lz xy xz yz pxx pyy pzz

min_style cg
minimize 1.0e-15 1.0e-15 100000 100000
Neighbor list info ...
  update every 1 steps, delay 0 steps, check yes
  max neighbors/atom: 2000, page size: 100000
  master list distance cutoff = 6
  ghost atom cutoff = 6
  binsize = 3, bins = 4 3 8
  1 neighbor lists, perpetual/occasional/extra = 1 0 0
  (1) pair nequip, perpetual
      attributes: full, newton off
      pair build: full/bin/atomonly
      stencil: full/bin/3d
      bin: standard
Per MPI rank memory allocation (min/avg/max) = 4.213 | 4.213 | 4.213 Mbytes
Step Temp Press TotEng Lx Ly Lz Xy Xz Yz Pxx Pyy Pzz 
       0          300    20949.274   -568.11947       6.8037     6.184815    22.405446    2.6646871   0.29402869  -0.26981789    5128.4852    29061.648    28657.688 
     100          300     10925.21   -574.49557       6.8037     6.184815    22.405446    2.6646871   0.29402869  -0.26981789    7171.8988    13645.804    11957.928 
     200          300    11040.471    -574.6174       6.8037     6.184815    22.405446    2.6646871   0.29402869  -0.26981789    4950.6504    15750.261    12420.501 
     204          300    11076.781   -574.61783       6.8037     6.184815    22.405446    2.6646871   0.29402869  -0.26981789    4922.0065    15700.399    12607.936 
Loop time of 105.253 on 1 procs for 204 steps with 88 atoms

99.8% CPU use with 1 MPI tasks x 1 OpenMP threads

Minimization stats:
  Stopping criterion = energy tolerance
  Energy initial, next-to-last, final = 
       -571.4931640625  -577.991516113281  -577.991516113281
  Force two-norm initial, final = 16.218635 0.078211970
  Force max component initial, final = 3.7823689 0.022082653
  Final line search alpha, max atom move = 1.0000000 0.022082653
  Iterations, force evaluations = 204 438

MPI task timing breakdown:
Section |  min time  |  avg time  |  max time  |%varavg| %total
---------------------------------------------------------------
Pair    | 105.24     | 105.24     | 105.24     |   0.0 | 99.99
Neigh   | 0.0028923  | 0.0028923  | 0.0028923  |   0.0 |  0.00
Comm    | 0.0027936  | 0.0027936  | 0.0027936  |   0.0 |  0.00
Output  | 0.00018215 | 0.00018215 | 0.00018215 |   0.0 |  0.00
Modify  | 0          | 0          | 0          |   0.0 |  0.00
Other   |            | 0.004027   |            |       |  0.00

Nlocal:        88.0000 ave          88 max          88 min
Histogram: 1 0 0 0 0 0 0 0 0 0
Nghost:        1052.00 ave        1052 max        1052 min
Histogram: 1 0 0 0 0 0 0 0 0 0
Neighs:         0.00000 ave           0 max           0 min
Histogram: 1 0 0 0 0 0 0 0 0 0
FullNghs:      7260.00 ave        7260 max        7260 min
Histogram: 1 0 0 0 0 0 0 0 0 0

Total # of neighbors = 7260
Ave neighs/atom = 82.500000
Neighbor list builds = 3
Dangerous builds = 0

fix 4 all nve
fix 5 all langevin 300.0 300.0 0.1 12345

run 5000
Per MPI rank memory allocation (min/avg/max) = 3.088 | 3.088 | 3.088 Mbytes
Step Temp Press TotEng Lx Ly Lz Xy Xz Yz Pxx Pyy Pzz 
     204          300    11076.778   -574.61783       6.8037     6.184815    22.405446    2.6646871   0.29402869  -0.26981789    4922.0089    15700.394    12607.931 
     300    216.33648    15779.819   -572.88064       6.8037     6.184815    22.405446    2.6646871   0.29402869  -0.26981789   -3380.0898     27567.12    23152.428 
     400    294.31695    19328.054   -571.60044       6.8037     6.184815    22.405446    2.6646871   0.29402869  -0.26981789    10091.446    19539.649    28353.067 
     500    300.94618    4689.0777   -571.36323       6.8037     6.184815    22.405446    2.6646871   0.29402869  -0.26981789   -4643.5707    10764.989     7945.815 
     600    331.94479    10889.124   -570.89848       6.8037     6.184815    22.405446    2.6646871   0.29402869  -0.26981789   -4108.4794    24116.259    12659.594 
     700      300.416    14863.561   -571.49968       6.8037     6.184815    22.405446    2.6646871   0.29402869  -0.26981789    9947.6967    13041.472    21601.514 
     800    327.96719   -1856.9531   -571.02109       6.8037     6.184815    22.405446    2.6646871   0.29402869  -0.26981789    -10630.14   -395.09289    5454.3738 
     900    291.29097    12736.473   -571.51459       6.8037     6.184815    22.405446    2.6646871   0.29402869  -0.26981789    9715.0524    11222.648    17271.719 
    1000    303.91162    4392.3967   -571.82237       6.8037     6.184815    22.405446    2.6646871   0.29402869  -0.26981789    695.89998    4469.8276    8011.4625 
    1100    260.82193    17618.982   -571.70514       6.8037     6.184815    22.405446    2.6646871   0.29402869  -0.26981789    20330.818     15255.99    17270.139 
    1200    294.62374    6980.9068   -571.50464       6.8037     6.184815    22.405446    2.6646871   0.29402869  -0.26981789    12388.542    5487.1531    3067.0256 
    1300    267.63123    27403.263   -571.47549       6.8037     6.184815    22.405446    2.6646871   0.29402869  -0.26981789    24728.489     26433.43     31047.87 
    1400    285.41067    13394.291   -571.27701       6.8037     6.184815    22.405446    2.6646871   0.29402869  -0.26981789    9761.4494    16733.455    13687.968 
    1500    290.33053    15788.602   -571.47992       6.8037     6.184815    22.405446    2.6646871   0.29402869  -0.26981789    8078.0073     15175.37    24112.428 
    1600    325.39996    15094.996    -571.2399       6.8037     6.184815    22.405446    2.6646871   0.29402869  -0.26981789    3411.9626    27318.123    14554.904 
    1700    355.33418    14307.643   -571.38454       6.8037     6.184815    22.405446    2.6646871   0.29402869  -0.26981789    9848.0267     12496.47    20578.433 
    1800    272.06841    15864.833   -571.25927       6.8037     6.184815    22.405446    2.6646871   0.29402869  -0.26981789     11511.68    21670.449    14412.371 
    1900    245.84366    8296.6845   -571.69633       6.8037     6.184815    22.405446    2.6646871   0.29402869  -0.26981789    5416.0879    16778.236    2695.7296 
    2000    298.73657    7193.3134   -571.58351       6.8037     6.184815    22.405446    2.6646871   0.29402869  -0.26981789    982.72305    12872.565     7724.652 
    2100    344.58136    5771.2465   -570.66616       6.8037     6.184815    22.405446    2.6646871   0.29402869  -0.26981789   -5961.9501    5836.8865    17438.803 
    2200    302.65064    16972.615   -570.89557       6.8037     6.184815    22.405446    2.6646871   0.29402869  -0.26981789     19392.01    10560.971    20964.863 
    2300    327.38567    12179.896   -570.68864       6.8037     6.184815    22.405446    2.6646871   0.29402869  -0.26981789    6982.6685    11505.911     18051.11 
    2400    334.68221    17041.027   -570.61562       6.8037     6.184815    22.405446    2.6646871   0.29402869  -0.26981789    7660.9007    19899.988    23562.192 
    2500    304.34713    13547.693   -571.09049       6.8037     6.184815    22.405446    2.6646871   0.29402869  -0.26981789    11101.406    10746.299    18795.374 
    2600    293.95507    15781.305   -571.72304       6.8037     6.184815    22.405446    2.6646871   0.29402869  -0.26981789    14350.169    13470.162    19523.586 
    2700    299.46054    21795.766   -571.33617       6.8037     6.184815    22.405446    2.6646871   0.29402869  -0.26981789    22525.399    16415.557    26446.341 
    2800    307.61087    21885.507   -570.74885       6.8037     6.184815    22.405446    2.6646871   0.29402869  -0.26981789    15191.109    26771.143     23694.27 
    2900    309.10011    17509.516   -570.64818       6.8037     6.184815    22.405446    2.6646871   0.29402869  -0.26981789    7744.1537    21889.487    22894.908 
    3000    378.67422    13002.354   -570.47381       6.8037     6.184815    22.405446    2.6646871   0.29402869  -0.26981789     11258.77    12509.733    15238.559 
    3100    334.00253    19127.452   -570.64469       6.8037     6.184815    22.405446    2.6646871   0.29402869  -0.26981789    13790.547    19152.476    24439.332 
    3200    284.34278    18522.546   -571.13039       6.8037     6.184815    22.405446    2.6646871   0.29402869  -0.26981789    5750.8128    10148.236     39668.59 
    3300    299.40751    8152.5298   -571.20994       6.8037     6.184815    22.405446    2.6646871   0.29402869  -0.26981789    2390.1173    12781.993    9285.4787 
    3400    290.16322    10366.991   -571.78747       6.8037     6.184815    22.405446    2.6646871   0.29402869  -0.26981789    17563.266    11352.438    2185.2685 
    3500    325.00817    5358.8855   -571.60069       6.8037     6.184815    22.405446    2.6646871   0.29402869  -0.26981789    8885.9865   -3405.3306    10596.001 
    3600    289.38446    24530.634   -571.56234       6.8037     6.184815    22.405446    2.6646871   0.29402869  -0.26981789    17709.126    29890.176      25992.6 
    3700    311.69875    12878.333   -571.19482       6.8037     6.184815    22.405446    2.6646871   0.29402869  -0.26981789    9898.2245    21467.939    7268.8347 
    3800    272.75887    14804.452   -571.18967       6.8037     6.184815    22.405446    2.6646871   0.29402869  -0.26981789    17930.966    7014.2001    19468.191 
    3900    304.81112    2514.8501   -570.75287       6.8037     6.184815    22.405446    2.6646871   0.29402869  -0.26981789    4065.0234    385.87663    3093.6501 
    4000     327.0015    18141.793   -571.26834       6.8037     6.184815    22.405446    2.6646871   0.29402869  -0.26981789    6829.4245    29718.967    17876.987 
    4100    295.17647     12736.65    -571.2751       6.8037     6.184815    22.405446    2.6646871   0.29402869  -0.26981789    7259.1122    5587.3454    25363.493 
    4200    275.32275    25346.629   -571.43977       6.8037     6.184815    22.405446    2.6646871   0.29402869  -0.26981789    26273.791    26506.137    23259.959 
    4300    311.95982    17325.843   -571.80865       6.8037     6.184815    22.405446    2.6646871   0.29402869  -0.26981789    22427.997    8287.2131    21262.321 
    4400    273.82122    5574.7899   -571.90893       6.8037     6.184815    22.405446    2.6646871   0.29402869  -0.26981789    8809.4982    9939.8643   -2024.9929 
    4500     305.1018    17179.104   -571.27615       6.8037     6.184815    22.405446    2.6646871   0.29402869  -0.26981789    5230.8231    20714.867    25591.622 
    4600    262.33796    21673.233   -571.83842       6.8037     6.184815    22.405446    2.6646871   0.29402869  -0.26981789    11539.879    26758.172    26721.648 
    4700     271.4069    10098.897   -571.56035       6.8037     6.184815    22.405446    2.6646871   0.29402869  -0.26981789    13621.788    6990.2599     9684.643 
    4800    291.55422    13686.064   -571.48954       6.8037     6.184815    22.405446    2.6646871   0.29402869  -0.26981789    9820.5128    17478.942    13758.737 
    4900    320.14137    15460.969   -571.04544       6.8037     6.184815    22.405446    2.6646871   0.29402869  -0.26981789    15896.817    15409.745    15076.345 
    5000     326.8495    16730.706   -570.65945       6.8037     6.184815    22.405446    2.6646871   0.29402869  -0.26981789    6743.1117    20115.899    23333.108 
    5100    322.04305     15159.07   -570.76624       6.8037     6.184815    22.405446    2.6646871   0.29402869  -0.26981789    2222.9767    18854.638    24399.594 
    5200    345.44024    7884.4686   -571.11329       6.8037     6.184815    22.405446    2.6646871   0.29402869  -0.26981789    876.85729    9306.9905    13469.558 
    5204    359.99222    15225.831    -570.9906       6.8037     6.184815    22.405446    2.6646871   0.29402869  -0.26981789     15745.43    18064.223     11867.84 
Loop time of 1134.81 on 1 procs for 5000 steps with 88 atoms

Performance: 0.381 ns/day, 63.045 hours/ns, 4.406 timesteps/s
100.0% CPU use with 1 MPI tasks x 1 OpenMP threads

MPI task timing breakdown:
Section |  min time  |  avg time  |  max time  |%varavg| %total
---------------------------------------------------------------
Pair    | 1134.7     | 1134.7     | 1134.7     |   0.0 | 99.99
Neigh   | 0.043529   | 0.043529   | 0.043529   |   0.0 |  0.00
Comm    | 0.027551   | 0.027551   | 0.027551   |   0.0 |  0.00
Output  | 0.0038121  | 0.0038121  | 0.0038121  |   0.0 |  0.00
Modify  | 0.071649   | 0.071649   | 0.071649   |   0.0 |  0.01
Other   |            | 0.01305    |            |       |  0.00

Nlocal:        88.0000 ave          88 max          88 min
Histogram: 1 0 0 0 0 0 0 0 0 0
Nghost:        1034.00 ave        1034 max        1034 min
Histogram: 1 0 0 0 0 0 0 0 0 0
Neighs:         0.00000 ave           0 max           0 min
Histogram: 1 0 0 0 0 0 0 0 0 0
FullNghs:      7262.00 ave        7262 max        7262 min
Histogram: 1 0 0 0 0 0 0 0 0 0

Total # of neighbors = 7262
Ave neighs/atom = 82.522727
Neighbor list builds = 60
Dangerous builds = 0

unfix 4
unfix 5

#fix 1 all npt temp 300.0 300.0 10.0 iso 0.0 0.0 1000.0
#fix 1 all box/relax tri 0.0 vmax 1.0
fix 1 all npt temp 300 300 0.1 iso 1.01325 1.01325 1.0




run 10000
Per MPI rank memory allocation (min/avg/max) = 3.104 | 3.104 | 3.104 Mbytes
Step Temp Press TotEng Lx Ly Lz Xy Xz Yz Pxx Pyy Pzz 
    5204    359.99222    15225.835    -570.9906       6.8037     6.184815    22.405446    2.6646871   0.29402869  -0.26981789    15745.415    18064.221    11867.868 
    5300    287.06268   -11525.725   -571.17689    6.8636456    6.2393077    22.602855     2.688165   0.29661929  -0.27219519   -22369.015   -6114.2235    -6093.937 
    5400    269.48427    1776.0839    -571.8778    6.8467455     6.223945    22.547201     2.681546   0.29588894  -0.27152497   -6098.1638    2189.8861    9236.5295 
    5500    272.50051    1781.5713   -572.05641     6.844733    6.2221155    22.540573    2.6807578   0.29580197  -0.27144516    2967.5698    -2034.192    4411.3362 
    5600    286.22437    4603.6267   -571.73936    6.8647626    6.2403231    22.606533    2.6886024   0.29666757  -0.27223949   -8397.0149    7332.4819    14875.413 
    5700    303.97287    -5339.658   -571.46316    6.8570571    6.2333186    22.581158    2.6855846   0.29633457  -0.27193391   -3443.0606   -14178.849    1602.9356 
    5800    327.08505   -9795.7943   -571.12671    6.8203347    6.1999365    22.460227    2.6712021   0.29474757  -0.27047759   -12954.826   -12246.024   -4186.5327 
    5900    279.76091   -151.31663   -571.01395    6.8634096    6.2390932    22.602078    2.6880725    0.2966091  -0.27218583    3483.3327   -5166.1546     1228.872 
    6000    313.53262   -4630.5053   -571.37232    6.8634397    6.2391206    22.602177    2.6880843    0.2966104  -0.27218702   -9308.1957   -7364.5206    2781.2006 
    6100    250.35059    3383.2352   -572.15279    6.8223701    6.2017868    22.466929    2.6719993   0.29483553  -0.27055831   -8331.1259    11054.936    7425.8956 
    6200    293.36969   -3078.6404   -572.08069    6.8395833    6.2174343    22.523615    2.6787409   0.29557942  -0.27124094   -7886.1764    1764.5796   -3114.3244 
    6300    306.68155   -6566.5228     -571.548     6.852678    6.2293378    22.566737    2.6838695   0.29614532  -0.27176024   -15057.074   -4897.1933    254.69919 
    6400    327.32995    5599.7986   -571.22162    6.8334948    6.2118995    22.503564    2.6763563    0.2953163  -0.27099948   -7556.5507    11064.479    13291.467 
    6500     314.2086   -14422.366    -571.2554    6.8703624    6.2454136    22.624974    2.6907956   0.29690957  -0.27246156   -22454.703   -7183.7894   -13628.607 
    6600    307.52209   -8067.0677   -571.50504     6.844178    6.2216109    22.538745    2.6805404   0.29577798  -0.27142315   -7729.0919   -8532.6855   -7939.4258 
    6700    261.40681   -9751.1426    -572.2046    6.8372529    6.2153158     22.51594    2.6778282   0.29547871  -0.27114852   -2211.8125   -19676.945   -7364.6707 
    6800     255.1148    1733.7149   -572.44583    6.8411828    6.2188883    22.528882    2.6793674   0.29564854  -0.27130437    477.91851   -6354.2659    11077.492 
    6900    268.06858    2742.7989   -572.04589    6.8538524    6.2304054    22.570605    2.6843294   0.29619607  -0.27180682   -609.14704    7014.3078     1823.236 
    7000    269.44731    5583.7296   -571.70213    6.8233635    6.2026898    22.470201    2.6723884   0.29487846   -0.2705977    7978.5833    1969.9067    6802.6988 
    7100    286.90922   -2095.2003   -571.44064    6.8464501    6.2236764    22.546228    2.6814303   0.29587617  -0.27151326   -5151.5229    354.14597   -1488.2238 
    7200    346.13092   -2653.6217   -571.18975    6.8566699    6.2329666    22.579883    2.6854329   0.29631783  -0.27191855   -8844.7772   -1899.1409    2783.0529 
    7300     311.1843   -1538.1776   -571.08306    6.8332218    6.2116514    22.502665    2.6762494    0.2953045  -0.27098866   -1926.3054    477.84425   -3166.0716 
    7400    287.78813   -1063.1283   -571.23343    6.8645261    6.2401082    22.605754    2.6885098   0.29665735  -0.27223011    3054.5494    2085.0029    -8328.937 
    7500    250.18151   -5292.3716   -571.46115    6.8513019    6.2280868    22.562205    2.6833305   0.29608585  -0.27170567   -14974.665   -5221.3132    4318.8636 
    7600    312.94757    2205.8288   -571.57507    6.8308419     6.209488    22.494828    2.6753173   0.29520165  -0.27089428     870.8787    6526.5336   -779.92603 
    7700    279.23065    -4579.721   -571.53846    6.8532144    6.2298254    22.568504    2.6840796    0.2961685  -0.27178151    -10150.61     767.2767   -4355.8298 
    7800     318.8787    2331.1908    -571.1612    6.8557701    6.2321486     22.57692    2.6850805   0.29627895  -0.27188286    6973.1764   -5076.1158    5096.5118 
    7900    294.64084    19093.414    -570.6516    6.8237799    6.2030683    22.471572    2.6725514   0.29489646  -0.27061421    12417.631    13009.789    31852.821 
    8000    297.09767    9322.4959   -570.84675    6.8709761    6.2459714    22.626995     2.691036   0.29693609   -0.2724859    13203.654    787.20694    13976.626 
    8100    275.96149    1474.0608   -571.46756    6.8791169    6.2533717    22.653804    2.6942243    0.2972879  -0.27280874    6545.0607   -3823.8671     1700.989 
    8200    305.02438    8627.2836   -571.55302    6.8240679    6.2033301     22.47252    2.6726642    0.2949089  -0.27062563    23356.631   -950.63913    3475.8585 
    8300    294.08426   -3047.9317   -571.50973    6.8657399    6.2412115    22.609752    2.6889852    0.2967098  -0.27227824    919.10161   -5972.4364   -4090.4602 
    8400    290.39813   -6860.3993   -571.29313    6.8826994    6.2566284    22.665602    2.6956274   0.29744273  -0.27295082   -13451.875     450.5007   -7579.8237 
    8500    321.59172    1304.4645   -570.75538    6.8153497     6.195405     22.44381    2.6692498   0.29453214  -0.27027989   -15478.347    9496.5488    9895.1914 
    8600    345.45333    14.658963   -570.34032     6.856678     6.232974     22.57991    2.6854361   0.29631818  -0.27191887    -12833.92    5721.7884    7156.1087 
    8700    270.99561   -11394.886   -570.70541    6.8793069    6.2535444    22.654429    2.6942987   0.29729611  -0.27281628    -4666.471   -11153.539   -18364.646 
    8800    294.46842    5774.7643   -571.49583    6.8041301     6.185206    22.406863    2.6648556   0.29404727  -0.26983495    432.52218   -935.61323    17827.384 
    8900    263.48461   -262.67327   -571.76943    6.8586802     6.234794    22.586503    2.6862202   0.29640471  -0.27199827   -4130.4183   -2794.5753    6136.9738 
    9000    285.45853   -9569.6451   -571.50682    6.8945919    6.2674391    22.704765    2.7002852   0.29795667  -0.27342244   -5620.6839   -6322.0117    -16766.24 
    9100    342.94149    18395.797    -570.8544    6.8054064    6.1863661    22.411066    2.6653554   0.29410243  -0.26988557    16429.854    19737.023    19020.512 
    9200    308.86977   -10175.449    -570.8332    6.8617352    6.2375711    22.596564    2.6874168   0.29653674  -0.27211943   -18797.323   -7840.0519    -3888.972 
    9300    294.67642   -10062.203    -571.2065    6.8682301    6.2434752    22.617952    2.6899605   0.29681742    -0.272377   -12561.369   -11727.326   -5897.9135 
    9400    321.43549    2145.2428   -571.30914    6.8406442    6.2183986    22.527108    2.6791564   0.29562527  -0.27128301    4120.8832    3290.7446   -975.89926 
    9500    290.25822    5659.3733   -571.44363    6.8318473    6.2104019    22.498139    2.6757111    0.2952451  -0.27093415    8017.2482   -6128.7077    15089.579 
    9600    290.82795    1045.7181   -571.44802    6.8341308    6.2124777    22.505659    2.6766054   0.29534378   -0.2710247    990.83824   -2912.4616    5058.7778 
    9700    304.34804   -19758.239   -571.18044    6.8825166    6.2564622    22.664999    2.6955558   0.29743482  -0.27294357   -27659.722   -21330.386   -10284.608 
    9800    316.85121   -4611.6463   -570.70011    6.8243331    6.2035713    22.473394    2.6727681   0.29492037  -0.27063615   -11948.072   -3960.5945    2073.7278 
    9900    356.50131   -9932.8348    -570.7787    6.8535573    6.2301371    22.569633    2.6842139   0.29618332  -0.27179511   -13685.592   -12620.222   -3492.6901 
   10000    268.42355   -12012.142   -571.49087    6.8561668    6.2325093    22.578226    2.6852359   0.29629609   -0.2718986   -29250.978   -8240.9187    1455.4689 
   10100    309.78038    1716.5915   -571.65622    6.8214963    6.2009924    22.464052    2.6716571   0.29479777  -0.27052365   -11548.817    17014.732   -316.14052 
   10200    272.29155   -7143.1096    -571.6309    6.8588723    6.2349687    22.587136    2.6862955   0.29641301  -0.27200589    -7992.693   -6491.9341   -6944.7017 
   10300    325.42666    3997.5281   -571.18473    6.8230449    6.2024002    22.469151    2.6722636   0.29486469  -0.27058506     -4100.61    10964.716     5128.478 
   10400    382.21261    4416.1364   -570.70214    6.8263123    6.2053704    22.479911    2.6735433    0.2950059  -0.27071464   -1945.8721    4403.3969    10790.884 
   10500    331.05788   -7066.9134   -570.95063    6.8807584    6.2548639    22.659209    2.6948672   0.29735884  -0.27287384   -5590.0848   -12341.118   -3269.5373 
   10600    291.27321    3001.6866   -571.29354    6.8520548    6.2287713    22.564685    2.6836254   0.29611839  -0.27173553    247.39896     2377.391    6380.2697 
   10700    289.54055    21733.419   -571.50516     6.827506    6.2064556    22.483843    2.6740108   0.29505749  -0.27076198    25373.175    17980.655    21846.427 
   10800    302.85772    15288.479   -571.43212     6.864662    6.2402316    22.606202     2.688563   0.29666322   -0.2722355    18312.494    8949.6681    18603.276 
   10900     338.6407   -7179.6682   -570.97211    6.8662271    6.2416545    22.611356     2.689176   0.29673086  -0.27229757   -10145.518   -3396.4797   -7997.0071 
   11000    329.44412    2345.9805   -570.28878    6.8011582    6.1825044    22.397076    2.6636916   0.29391884  -0.26971709   -2430.1505    9983.9431   -515.85113 
   11100    325.95518    948.99095   -570.77382    6.8556036    6.2319973    22.576372    2.6850153   0.29627175  -0.27187626   -1894.2987    10847.452   -6106.1809 
   11200    306.89605   -6149.9937     -571.325    6.8992221    6.2716481    22.720013    2.7020986   0.29815677  -0.27360606   -4872.2738    -5413.111   -8164.5962 
   11300    296.86803    24727.241   -571.51688    6.7816329    6.1647551    22.332776    2.6560445   0.29307503  -0.26894277    16987.762    11546.751     45647.21 
   11400    310.28524   -19071.433    -571.7131    6.8745342    6.2492059    22.638712    2.6924295   0.29708986    -0.272627   -20579.688   -16460.594   -20174.019 
   11500     339.5061   -15546.241    -571.4094    6.8578384    6.2340287    22.583731    2.6858905   0.29636833  -0.27196489   -16587.368   -17434.935   -12616.419 
   11600    310.78886    7948.7955    -570.7133    6.8200849    6.1997095    22.459404    2.6711043   0.29473678  -0.27046768    2407.2831    1058.1021    20381.001 
   11700    302.19652   -5596.1069   -570.76567    6.8745532    6.2492232    22.638775     2.692437   0.29709068  -0.27262776   -6892.6247   -7940.6138   -1955.0822 
   11800     298.9295   -5631.8026   -571.17369    6.8299164    6.2086466     22.49178    2.6749548   0.29516165  -0.27085757   -9077.6616   -8121.9193    304.17304 
   11900    310.14828   -11424.181   -571.47782      6.84268    6.2202492    22.533812    2.6799537   0.29571324  -0.27136374   -18975.211    -8585.967   -6711.3662 
   12000    313.11184    -7813.611   -571.59971     6.859356    6.2354083    22.588729    2.6864849   0.29643391  -0.27202507   -4035.6813   -7230.5908   -12174.561 
   12100    305.07994    10748.009   -571.52597    6.8350969     6.213356     22.50884    2.6769838   0.29538554  -0.27106302    15558.885    4762.7378    11922.404 
   12200    302.92507    1223.8238   -571.46292    6.8440422    6.2214875    22.538298    2.6804872   0.29577211  -0.27141777    -9436.862    4675.2188    8433.1146 
   12300    298.03033   -667.85533   -571.14712     6.861193    6.2370782    22.594778    2.6872044    0.2965133  -0.27209793    200.65437    3573.2561   -5777.4765 
   12400    323.00909    8389.4329    -570.8368    6.8527944    6.2294436     22.56712    2.6839151   0.29615035  -0.27176486     6892.265    6388.1049    11887.929 
   12500    278.78578    7008.9431   -570.80476    6.8540237    6.2305611    22.571169    2.6843965   0.29620348  -0.27181361    12225.577    2166.0253    6635.2271 
   12600    317.10627    3561.1179   -571.50541    6.8318467    6.2104013    22.498137    2.6757108   0.29524507  -0.27093412     439.5251    2066.6462    8177.1823 
   12700    267.09616   -4789.9928   -571.91668    6.8464729    6.2236971    22.546303    2.6814392   0.29587716  -0.27151416   -5891.5135   -7046.8286   -1431.6363 
   12800    316.72732    16787.123   -571.79312    6.8148139    6.1949179    22.442046    2.6690399   0.29450898  -0.27025864    15814.995    14697.661    19848.713 
   12900    321.21513    9576.1404   -571.38346    6.8667687    6.2421468     22.61314    2.6893881   0.29675426  -0.27231904    17482.888    5010.2012    6235.3318 
   13000    321.36822    8246.5393   -570.77743    6.8542303    6.2307489    22.571849    2.6844774    0.2962124   -0.2718218     13692.94   -2082.9984    13129.676 
   13100    379.63978     7152.289   -570.66198     6.837084    6.2151623    22.515384     2.677762   0.29547141  -0.27114182    8462.7563    4777.5071    8216.6036 
   13200    306.13883   -3067.5298   -570.92465    6.8499978    6.2269013    22.557911    2.6828197   0.29602949  -0.27165395   -2270.0512    4059.7034   -10992.242 
   13300    317.51185    -4876.877   -571.29797    6.8484171    6.2254645    22.552706    2.6822007   0.29596118  -0.27159127    841.19988   -5463.3828   -10008.448 
   13400     291.3605    3166.8308   -571.70387    6.8380626    6.2160519    22.518607    2.6781453    0.2955137  -0.27118063   -4024.5493   -1733.4194    15258.461 
   13500     268.2927    4526.2351   -571.80777    6.8330967    6.2115376    22.502253    2.6762004   0.29529909  -0.27098369   -2094.4995    4336.9536    11336.251 
   13600    303.04716    -3721.644   -571.55799    6.8554102    6.2318215    22.575735    2.6849396    0.2962634   -0.2718686   -1589.1642   -3449.6775   -6126.0901 
   13700     339.5325   -1665.1549   -570.82511    6.8419972    6.2196285    22.531564    2.6796863   0.29568374  -0.27133667   -13956.858      10947.4   -1986.0068 
   13800    332.74603   -6901.1381   -570.89319    6.8461038    6.2233616    22.545087    2.6812947   0.29586121  -0.27149952   -19950.415   -2730.3952    1977.3962 
   13900    276.05017   -3878.8492   -571.39717    6.8435153    6.2210085    22.536563    2.6802809   0.29574934  -0.27139687    5319.4784   -11847.608   -5108.4178 
   14000    274.42084   -3320.1724    -571.7059    6.8507627    6.2275967     22.56043    2.6831193   0.29606255  -0.27168429    -4141.512   -10127.986    4308.9803 
   14100    312.21764   -1659.6492   -571.60781    6.8556467    6.2320364    22.576513    2.6850322   0.29627361  -0.27187797    2509.3833   -12750.456    5262.1252 
   14200    317.41961   -2259.8626   -571.34149    6.8458862    6.2231638    22.544371    2.6812094    0.2958518  -0.27149089   -1886.9846    -17177.47    12284.866 
   14300    287.56882    3107.5513     -571.208    6.8555447    6.2319437    22.576178    2.6849922   0.29626921  -0.27187393    6122.2071    782.33675      2418.11 
   14400     254.6756    1644.2737   -571.28866    6.8616116    6.2374588    22.596157    2.6873684    0.2965314  -0.27211453    6859.2469   -3939.8399    2013.4141 
   14500    269.14943    9425.9434   -571.75352    6.8393806      6.21725    22.522947    2.6786615   0.29557066   -0.2712329    5355.2952    2658.1162    20264.419 
   14600    293.65918    1735.1066   -572.01592    6.8474638    6.2245979    22.549566    2.6818273   0.29591998  -0.27155346   -3076.5326    912.94687    7368.9054 
   14700    287.56843   -3177.0704   -571.69861    6.8518133    6.2285518     22.56389    2.6835308   0.29610795  -0.27172595   -4378.4194   -4172.6663    -980.1256 
   14800    282.27627   -1514.1016   -571.10712    6.8609644    6.2368704    22.594025    2.6871149   0.29650342  -0.27208886    8987.7213    857.35524   -14387.381 
   14900    312.45911   -5922.5115   -571.07635    6.8480143    6.2250983    22.551379    2.6820429   0.29594377  -0.27157529   -5411.5723   -4551.9349   -7804.0274 
   15000    303.08711    2153.1452   -571.23667    6.8408157    6.2185545    22.527673    2.6792236   0.29563268  -0.27128981   -4574.6744    8911.2145    2122.8956 
   15100    314.91265    1793.1589   -571.27398    6.8529363    6.2295726    22.567588    2.6839706   0.29615648  -0.27177049   -7897.1562    1052.4818    12224.151 
   15200     280.6892   -5567.4409   -571.62564    6.8700846     6.245161    22.624059    2.6906868   0.29689756  -0.27245054   -4745.7458   -11203.018   -753.55892 
   15204    289.17818   -14911.645   -571.63766    6.8705455      6.24558    22.625577    2.6908673   0.29691748  -0.27246882    -17883.75   -17742.244    -9108.941 
Loop time of 2229.95 on 1 procs for 10000 steps with 88 atoms

Performance: 0.387 ns/day, 61.943 hours/ns, 4.484 timesteps/s
99.9% CPU use with 1 MPI tasks x 1 OpenMP threads

MPI task timing breakdown:
Section |  min time  |  avg time  |  max time  |%varavg| %total
---------------------------------------------------------------
Pair    | 2229.6     | 2229.6     | 2229.6     |   0.0 | 99.98
Neigh   | 0.10772    | 0.10772    | 0.10772    |   0.0 |  0.00
Comm    | 0.057648   | 0.057648   | 0.057648   |   0.0 |  0.00
Output  | 0.0074527  | 0.0074527  | 0.0074527  |   0.0 |  0.00
Modify  | 0.1453     | 0.1453     | 0.1453     |   0.0 |  0.01
Other   |            | 0.03197    |            |       |  0.00

Nlocal:        88.0000 ave          88 max          88 min
Histogram: 1 0 0 0 0 0 0 0 0 0
Nghost:        1041.00 ave        1041 max        1041 min
Histogram: 1 0 0 0 0 0 0 0 0 0
Neighs:         0.00000 ave           0 max           0 min
Histogram: 1 0 0 0 0 0 0 0 0 0
FullNghs:      7058.00 ave        7058 max        7058 min
Histogram: 1 0 0 0 0 0 0 0 0 0

Total # of neighbors = 7058
Ave neighs/atom = 80.204545
Neighbor list builds = 153
Dangerous builds = 0

write_dump all custom output-tob11_nequip.dump id type x y z fx fy fz
Total wall time: 0:57:56
