ITEM: TIMESTEP
5232
ITEM: NUMBER OF ATOMS
104
ITEM: BOX BOUNDS xy xz yz pp pp pp
6.3272741676604571e-02 9.9549284321807932e+00 2.5274202492224291e+00
1.2430783606997364e-01 7.6120777338739867e+00 5.3667943208957358e-01
9.6275258227295879e-02 2.8326660400467510e+01 1.3833712714608084e+00
ITEM: ATOMS id type x y z fx fy fz
1 1 7.70202 6.32398 14.0165 -0.884831 0.16234 -0.381806
2 1 7.59933 6.73931 22.076 0.0817322 -0.158228 0.388024
3 1 2.99121 5.5004 7.86985 0.598081 0.316584 0.310924
4 1 2.809 3.72555 22.2413 -0.783071 -0.340922 -0.283719
5 1 4.03859 6.59222 20.1623 -0.141774 -0.145907 -0.0208605
6 1 5.23606 2.48237 7.9285 -0.344872 -0.0159091 0.647318
7 1 6.21219 3.83005 28.1268 -0.215521 -0.0293345 -0.101406
8 1 6.21905 5.35444 5.7137 0.324604 0.174207 0.535947
9 1 6.15301 3.4419 19.9438 -0.117603 0.787918 0.146751
10 1 1.70728 2.30833 6.05557 0.158216 0.312944 0.252043
11 2 3.41684 1.39528 11.1749 1.44687 -0.793337 -0.124533
12 2 7.20095 6.81594 18.9338 2.84782 0.967909 0.469898
13 2 2.44889 5.61817 16.8843 -0.927527 -1.54706 -0.217549
14 2 2.69487 5.59243 4.81471 -0.329179 0.349545 -0.728634
15 2 2.85244 3.35694 19.0785 0.3554 0.7203 -0.314129
16 2 4.40063 6.44239 23.2195 -1.40123 0.252489 0.465976
17 2 4.66994 4.37118 2.74142 0.317809 -0.172971 -1.49341
18 2 5.25791 2.07796 4.88242 -0.396593 1.11225 0.283526
19 2 5.95039 3.87182 23.1285 1.61299 -0.124955 1.15364
20 2 6.71656 5.3819 9.01759 -1.04594 0.673892 0.269865
21 2 7.82802 2.60614 25.1348 0.820743 -0.611777 1.5291
22 2 1.66244 2.79479 9.09048 -0.624681 -1.67213 -1.08093
23 3 3.26441 1.26535 12.7574 0.263547 0.00847851 0.150528
24 3 7.68666 6.30739 8.13898 -0.191167 0.0961245 -0.244924
25 3 7.6954 6.49884 24.7422 0.390157 -0.386962 -0.765389
26 3 7.9159 6.30199 17.5114 -0.386962 0.440716 0.0419709
27 3 8.54695 4.63794 5.70993 0.532134 0.658803 -0.78059
28 3 5.88162 1.26782 20.0196 -0.996685 -1.62525 -1.28284
29 3 5.43488 0.612534 1.73171 0.673132 -0.294536 -0.353102
30 3 6.05084 0.815554 4.2292 1.13282 -1.6199 0.33481
31 3 2.3289 5.38654 15.2939 0.640628 0.607261 0.569124
32 3 2.05453 3.79205 24.5987 0.223248 0.0767752 -0.151149
33 3 2.91734 3.21073 8.15612 -0.0628649 0.102204 -0.191714
34 3 2.57872 4.08747 17.5179 0.102358 -0.745912 1.9001
35 3 3.86107 4.79068 11.0331 -0.891016 -0.436082 -0.993496
36 3 3.01398 6.02433 22.4354 0.81447 0.226648 0.0731458
37 3 3.8612 3.64652 13.6502 1.23232 -0.369147 -0.427475
38 3 3.31315 5.01724 3.36066 -1.26909 0.613966 0.683394
39 3 3.08218 6.43014 28.2072 0.287034 0.529812 -0.228296
40 3 3.75237 6.40028 17.5267 0.666368 -0.726765 0.200407
41 3 3.91271 1.67999 5.6741 0.16089 -0.597753 0.0930059
42 3 3.73445 4.27627 20.1379 -0.647299 -0.339027 -1.60113
43 3 3.95383 6.10316 5.71161 -0.267368 -0.163048 0.061874
44 3 4.06795 7.17141 24.6811 -0.0873728 1.77986 -0.316337
45 3 3.76301 2.03643 18.5993 -0.193555 0.370445 -0.456409
46 3 4.10839 2.69677 27.1348 -0.458769 -0.240593 -0.399427
47 3 4.69735 4.1312 1.16059 -0.162857 -0.183025 0.283441
48 3 5.14293 2.17799 15.4593 -0.592847 1.11025 -1.20626
49 3 4.81938 2.98391 3.56259 0.133617 -0.916663 0.512986
50 3 4.67176 2.30635 10.5613 0.361734 1.76163 -0.0113303
51 3 5.34838 4.97104 8.24976 0.175909 -0.537167 -0.741967
52 3 2.79837 1.18691 22.2041 -0.0831376 -0.0796609 0.0722616
53 3 4.96701 3.0527 22.2159 -0.160285 -0.865867 -0.603387
54 3 5.73943 5.53181 15.4298 0.907249 -0.228542 -0.478213
55 3 5.12698 5.09509 23.8925 0.00852537 0.214724 -0.189788
56 3 5.91681 5.34668 3.24111 -0.928637 -0.328568 1.71134
57 3 6.27251 2.878 5.87011 -0.440465 0.565558 -0.358602
58 3 5.66776 5.63861 26.4916 0.496462 -0.229652 -1.39562
59 3 6.23774 6.00507 10.4981 0.187977 0.103199 0.0884153
60 3 6.37306 5.647 19.5518 -1.38042 -0.492223 0.905426
61 3 6.6374 1.41056 12.3979 0.533068 0.357457 -0.274282
62 3 6.36128 2.83917 24.4323 -0.13873 0.331145 -0.377661
63 3 6.81348 2.99327 17.4634 -0.828671 0.147042 -2.20461
64 3 0.662149 1.76778 8.25488 0.706555 0.529227 0.0557072
65 3 7.48891 4.27623 12.7806 0.535816 0.819334 -1.87895
66 3 7.27665 4.43937 22.4025 -0.371617 -0.255688 -0.436413
67 3 7.64253 3.14434 0.980726 -0.94293 -1.48189 1.53002
68 3 7.58178 4.08786 9.5144 0.346695 -0.425287 0.769154
69 3 7.78231 2.64568 26.757 -0.45193 0.0462698 -0.316091
70 3 1.51569 2.81029 19.8333 0.845351 0.195808 -0.367469
71 3 1.91816 2.37706 3.4028 0.759492 -0.526531 -0.0939958
72 3 2.14823 2.00993 10.4333 -1.74118 0.658545 0.201636
73 4 3.14783 2.99252 27.1079 0.755695 -0.367079 -0.0497997
74 4 4.62899 2.16891 16.2799 -0.244994 -0.24626 0.46419
75 4 8.19062 3.83679 0.619433 1.10796 1.14692 -0.541196
76 4 6.93369 3.49374 12.925 -0.161228 -0.299187 -0.0802872
77 4 6.98857 6.29744 25.3916 0.225197 0.328057 0.439502
78 4 5.65422 1.2413 24.887 -0.356286 0.0508299 0.210199
79 4 2.87769 2.69703 3.46996 -0.939318 -0.514452 -0.259417
80 4 8.44257 5.88766 1.3969 -0.111941 0.948427 0.0146952
81 4 3.21762 4.16211 14.1373 -1.14605 0.766686 1.01178
82 4 1.98437 1.4414 3.07184 0.152878 0.680195 0.419339
83 4 0.796879 1.30601 12.3739 -0.518275 0.102048 -0.0756314
84 4 3.30915 7.32393 27.7667 -0.286058 -0.756303 -0.089419
85 4 3.47272 2.76539 13.3577 -0.367813 -0.227625 -0.315214
86 4 1.78103 4.7505 24.7116 0.0375633 -0.585963 -0.048681
87 4 3.79012 4.73814 11.9955 0.117969 -0.310788 0.859654
88 4 4.19544 2.00243 26.4296 -0.194038 0.814039 0.668253
89 4 1.12034 1.23962 17.4344 -0.250904 1.63048 -0.117318
90 4 3.42288 4.62174 0.261396 -0.352373 0.37855 0.47879
91 4 4.69455 5.24074 10.8256 0.822411 0.492172 -0.00809959
92 4 4.62889 2.86737 14.8497 0.737098 -0.480336 0.507215
93 4 4.93187 5.99057 15.1957 -0.903049 0.201142 -0.44453
94 4 5.18949 6.40671 26.8466 -0.203822 -0.0410706 -0.0873597
95 4 5.87683 5.79157 16.3471 0.225504 0.0241408 0.792197
96 4 4.38797 3.33371 10.6243 0.344639 -1.34967 0.299697
97 4 5.93299 0.901196 2.56682 -0.708154 -0.642519 -0.59684
98 4 5.44158 5.57375 25.4753 -0.403389 -0.341848 1.55177
99 4 6.46145 5.68454 2.54455 1.45089 0.907733 -1.28246
100 4 6.37409 3.04811 16.5213 0.360459 -0.453836 1.81116
101 4 6.37952 1.85319 11.5375 -0.131794 -0.568698 0.559698
102 4 7.57025 4.40971 11.7661 -0.371505 -0.454511 1.77743
103 4 7.66276 3.44575 17.2856 0.447537 0.280771 0.339434
104 4 7.90863 2.96563 1.94132 0.0720339 0.41457 -1.02659
