ITEM: TIMESTEP
100415
ITEM: NUMBER OF ATOMS
104
ITEM: BOX BOUNDS xy xz yz pp pp pp
-3.4052921363759037e-02 1.1658093761244006e+01 2.8357738984004359e+00
2.6256209193421309e-02 7.8271793091735091e+00 2.0403931161957032e+00
5.3080434703021595e-02 2.7830968557187230e+01 1.6173448492886686e+00
ITEM: ATOMS id type x y z fx fy fz
1 1 7.84053 5.92823 17.3591 0.608273 0.232504 0.0414444
2 1 8.30975 6.53289 25.185 -0.58457 0.645805 0.314906
3 1 2.92038 4.27511 11.4791 -0.159973 -0.162848 -0.833035
4 1 3.39862 3.6609 25.2629 -0.0977145 -0.887497 0.332898
5 1 4.81515 6.59158 23.1911 0.136663 -0.158022 0.436258
6 1 4.74188 1.02718 11.2325 -0.0134975 0.900514 0.272053
7 1 4.56839 1.87406 2.88758 0.399365 -0.360712 -0.390355
8 1 6.92904 3.54827 23.2088 -0.300976 -0.352741 0.359285
9 1 6.03401 4.08458 9.32098 0.737383 0.198721 -0.34669
10 1 1.3882 1.00413 9.27207 -0.311548 0.649541 -0.180485
11 2 6.02766 6.38938 14.441 -0.842244 0.00938185 1.45034
12 2 8.16192 6.80135 22.1122 -0.716505 0.315408 -0.743432
13 2 9.96146 5.45682 20.0588 -2.60546 -0.498836 -0.887175
14 2 2.58558 4.39371 8.25826 0.256113 -0.916653 1.36459
15 2 3.62601 3.2362 22.203 1.1221 -0.546941 0.0942144
16 2 5.05126 6.37937 26.4383 -1.47268 0.291332 -0.459202
17 2 4.3933 3.02502 6.21361 -0.691887 -0.0574121 -1.32037
18 2 4.85967 0.849127 8.23384 -0.614356 -1.54727 -0.813503
19 2 6.59307 3.69563 26.4042 1.30394 0.98195 0.452538
20 2 6.42994 4.08265 12.3242 -0.599697 0.143082 1.6843
21 2 6.49654 0.762538 0.753531 -0.349005 -0.291951 -1.20432
22 2 1.23306 1.4141 12.5521 0.398767 2.1763 0.626692
23 3 6.1146 6.25729 16.0377 0.0385394 -0.0870485 -0.405439
24 3 7.34957 4.99273 11.4033 0.980706 0.204039 -0.476406
25 3 8.66635 6.3667 20.5908 0.90575 -0.751958 0.654555
26 3 8.43889 6.59232 27.7306 1.10817 1.12522 0.110856
27 3 8.5837 3.2676 9.06339 -0.974143 0.29546 0.595876
28 3 9.37624 7.24173 23.0911 0.185672 -0.0445017 -0.00950335
29 3 9.64573 5.16263 18.529 0.702833 0.325328 -0.30978
30 3 8.49854 5.6522 7.78492 -0.414821 0.254897 0.0880194
31 3 4.02381 5.71648 4.22688 0.4963 -0.650548 0.810643
32 3 2.58809 1.86091 11.7163 -0.984735 -0.290069 0.195936
33 3 3.2083 4.01785 20.8313 -0.56279 -0.272813 0.205299
34 3 7.81446 3.91206 4.74402 0.413203 -1.31105 0.335903
35 3 10.4933 6.02501 25.5558 0.982565 -0.59046 0.226167
36 3 3.29786 3.7832 13.7704 -0.511158 0.403379 -0.0101951
37 3 3.0537 3.67603 6.87407 0.194394 -0.11645 -1.19923
38 3 4.62874 4.1093 16.8575 0.898054 0.213699 -0.0453956
39 3 6.38579 6.62272 9.1163 0.504752 -0.197518 -0.425608
40 3 4.58 4.1168 23.1372 0.699779 1.11746 0.502223
41 3 4.4985 6.22962 20.4763 0.111408 0.699481 1.6028
42 3 3.89072 4.82965 9.15141 -0.517018 0.630635 -0.016889
43 3 4.53332 1.9813 21.5694 -1.00807 0.454399 0.564996
44 3 2.51256 5.40272 0.110115 -0.133916 0.362256 0.506214
45 3 6.62662 6.29006 4.55526 -0.572244 -0.0937739 -0.417055
46 3 4.39588 1.18801 13.8538 -0.0882573 -0.486046 -0.683228
47 3 3.81936 1.61939 18.7047 -0.00905774 0.714351 -1.28768
48 3 4.55481 1.47253 6.73183 -0.691803 0.0454315 -0.381595
49 3 4.19054 3.05945 4.60061 0.247102 0.293641 1.4069
50 3 5.56778 2.73106 25.6301 0.450763 0.123382 -0.166931
51 3 5.17513 3.54456 11.4778 -0.661922 -0.145279 -0.209401
52 3 5.94926 7.37679 25.6058 0.962034 0.366958 -1.13078
53 3 6.58168 4.86744 19.0045 -0.602453 0.657763 -0.852865
54 3 5.80314 5.04817 26.9874 -0.0149696 -0.857742 -0.263804
55 3 5.6625 3.88242 6.8052 1.14138 0.2582 -0.213049
56 3 5.80835 1.80561 9.03203 1.0845 0.772834 1.64375
57 3 7.43645 3.11371 20.743 -0.127022 1.17515 0.672117
58 3 5.99532 4.91887 13.754 -0.216211 -0.604007 -1.31141
59 3 2.8157 3.17502 2.11561 -2.34761 0.481522 1.30132
60 3 7.12248 5.78614 22.8695 0.445268 0.650185 -0.18643
61 3 6.18538 1.52712 15.7841 -0.697383 0.525305 0.722592
62 3 5.08813 1.43444 0.0837914 0.587038 -0.505389 0.854363
63 3 9.88487 6.6378 11.7623 -0.181028 -0.674043 -0.576766
64 3 7.90024 4.24176 25.5289 -0.983657 -0.67323 -0.274059
65 3 7.18773 2.83756 13.0207 1.41075 -1.96237 -0.254438
66 3 8.47096 3.95144 15.9153 -0.923795 1.59751 0.10065
67 3 5.91261 3.73623 2.14726 0.602311 -0.25012 -0.26084
68 3 6.46566 0.602893 2.33678 -0.397637 0.662438 -0.0803057
69 3 2.34467 2.80581 23.0831 -0.356298 -0.58247 -0.240851
70 3 1.72837 0.912137 14.0813 -0.426064 0.0357538 -0.6099
71 3 0.850363 1.21309 6.74539 0.614842 0.867164 0.193049
72 3 2.99011 3.2605 27.8642 -0.534635 -0.559225 -0.36346
73 4 5.62116 6.11797 4.60734 0.347919 0.00704566 -0.217679
74 4 9.44091 6.63682 27.7317 -0.3173 -0.0721093 -0.228095
75 4 3.8391 4.71325 4.2128 0.434219 0.726571 0.030555
76 4 5.87698 4.40053 2.84509 -0.0257884 0.233987 0.482542
77 4 1.16721 2.00274 6.2437 -0.167075 -0.579388 0.355806
78 4 6.19001 5.91962 0.194865 -0.115682 -0.651331 -0.428399
79 4 3.52263 6.1751 3.5139 -0.537983 -0.00188296 -0.632373
80 4 4.02588 4.56117 17.4924 -1.24568 -0.00232368 0.536509
81 4 0.725876 0.527257 6.07475 0.00285157 -0.419056 -0.593415
82 4 1.5099 2.1405 0.6897 0.375024 0.272039 0.686452
83 4 3.26068 2.81643 13.563 0.685993 0.112076 0.305994
84 4 5.0085 4.9378 16.4376 0.548945 -0.299866 -0.255281
85 4 8.58226 3.85859 5.37175 -0.1712 0.527059 -0.296861
86 4 4.21769 4.05288 13.9909 0.045301 -0.270651 0.0810707
87 4 7.49668 4.83236 4.62905 -0.010532 0.726091 0.179407
88 4 3.8366 2.45495 18.152 -0.112159 -0.800735 0.281643
89 4 4.06903 1.93894 19.5816 0.296233 -0.0666651 0.857287
90 4 5.13127 1.22927 14.5235 0.127921 0.381956 0.109815
91 4 5.01061 6.3645 19.6912 1.64174 0.526404 -1.08983
92 4 5.86458 4.5682 18.4076 -0.305067 -0.312931 -0.217873
93 4 4.05562 0.582649 5.38632 -0.0892577 0.022897 0.317754
94 4 2.08962 3.52684 2.79683 1.66796 -0.685265 -1.46384
95 4 6.82478 4.09616 19.548 0.377962 -0.54483 0.781699
96 4 6.96412 1.28915 15.2498 0.783847 0.284271 -0.220913
97 4 8.41923 3.24898 20.8485 -0.318188 -0.296882 -0.598924
98 4 6.46369 3.78134 6.21745 -0.360713 0.282635 0.211903
99 4 2.84043 3.80049 1.35953 0.0359281 0.412016 0.0817254
100 4 7.20963 2.23085 20.4521 0.169576 -1.07566 -0.224977
101 4 6.11729 2.52011 15.9218 0.234993 -0.934281 -0.286651
102 4 8.93377 3.95966 15.0496 0.377507 -0.216689 -0.122312
103 4 8.56932 3.10056 16.3177 0.329067 -1.28459 0.354407
104 4 6.47269 4.15356 1.41687 -1.13826 -0.371287 0.340958
