ITEM: TIMESTEP
10533
ITEM: NUMBER OF ATOMS
104
ITEM: BOX BOUNDS xy xz yz pp pp pp
1.2584458299203849e-01 9.9286007514764556e+00 2.5515754234356920e+00
9.5137219839472653e-02 7.6724095153807417e+00 5.4876841848735103e-01
-2.2167687630830279e-01 2.8644612535003205e+01 1.4145324367371395e+00
ITEM: ATOMS id type x y z fx fy fz
104 4 1.76151 2.70688 1.35105 -0.645991 -0.208489 -0.404915
73 4 2.50012 1.42954 -0.0148997 -0.524044 0.568341 -0.0543156
67 3 1.273 2.76572 0.465618 1.02408 0.526704 0.855229
75 4 1.69384 3.60975 0.131625 -0.267475 -0.203176 -0.0708905
29 3 5.84537 0.586934 1.35285 1.57223 -0.541942 1.58171
46 3 3.92809 2.48834 28.6433 0.615786 -1.73935 0.209487
7 1 5.47837 2.22463 -0.101695 0.191938 1.17695 -0.80847
97 4 6.41802 0.785459 2.18341 -0.880386 -0.115471 -1.14227
80 4 9.08609 5.97612 0.794277 -0.252054 -0.101772 -0.274183
39 3 2.89398 5.23306 -0.0272353 0.904851 -0.0333346 0.717034
88 4 5.90068 6.26725 0.0950348 0.00748622 0.948833 -0.403126
47 3 5.38104 4.5216 0.81034 -0.241072 0.815897 1.60821
17 2 5.36504 4.77529 2.44604 1.93999 -0.843318 -0.721158
90 4 3.82568 5.1676 0.386392 -0.768091 -0.478901 -0.475946
99 4 7.29861 5.9889 2.31605 -0.0100587 0.17725 0.0492514
71 3 2.97374 2.37864 2.98677 0.0418199 -2.27305 0.0966927
79 4 3.92142 2.6241 2.82876 -0.144122 0.513265 0.220189
10 1 2.58597 2.80343 5.67542 -0.851744 -0.0482705 -0.440236
43 3 4.7082 6.56914 5.45325 0.44969 0.514416 0.159098
82 4 3.11707 1.35365 3.07379 -0.517891 1.72183 -0.223556
49 3 5.47884 3.25513 3.13407 0.287152 0.46595 -0.109263
18 2 5.99819 2.53034 4.5607 1.57857 1.1054 -1.30116
41 3 4.75617 1.96644 5.39824 -0.138974 0.29938 0.342705
57 3 6.87919 3.58039 5.46055 -0.58078 -1.15976 -0.584242
30 3 6.91395 1.27615 3.8581 -1.18444 0.691463 0.534668
27 3 2.61108 5.0732 5.34234 -0.862846 0.0887706 -0.08738
14 2 3.48427 6.09692 4.49532 1.06814 -0.0518591 0.814663
38 3 4.09395 5.4618 3.11113 -0.944114 0.125319 -0.864739
56 3 6.63187 5.80529 3.04326 -1.01708 -0.959654 -0.520567
8 1 6.91754 5.98377 5.68343 0.28834 -1.61631 0.161575
22 2 2.3629 3.00706 8.66838 -2.4087 -0.059527 -0.195093
33 3 3.55212 3.49526 7.74107 1.00591 0.256694 -0.888266
64 3 1.30707 2.09132 7.79722 1.05843 0.280772 0.712319
6 1 5.80263 2.74015 7.51244 0.144367 0.334423 0.51672
3 1 3.7688 5.79409 7.68033 0.28267 0.813709 -0.70464
51 3 5.98402 5.17934 7.94498 0.973711 0.366104 0.704851
20 2 7.32826 5.64852 8.81193 -1.39568 -1.3492 -0.716805
24 3 8.24059 6.52415 7.79327 -0.504534 0.44194 0.593651
72 3 2.94945 2.34949 10.0188 0.875568 -1.26104 1.7036
11 2 4.24893 1.61945 10.71 -0.571191 0.560634 -0.477996
50 3 5.56487 2.3858 10.0697 0.0500044 0.0515734 0.0929646
96 4 6.41057 1.93591 10.2399 0.337203 -0.0866136 0.0472135
23 3 4.17586 1.68782 12.3422 -0.136781 0.506068 0.688612
101 4 6.74483 2.68632 13.6251 -0.325041 3.4917 -0.561897
91 4 3.01387 5.53971 10.5134 -0.670412 -0.978273 0.749264
35 3 3.65543 6.10977 10.1118 1.05566 0.988129 -0.385092
87 4 4.49573 6.1123 10.6209 -0.470078 -0.117263 -0.105544
59 3 6.89264 6.1729 10.4047 0.164485 0.456379 -1.30001
76 4 7.72211 4.91914 11.7754 -0.219202 0.0802996 -0.112791
68 3 8.20344 4.32554 9.27832 0.471981 -0.496694 0.198011
102 4 2.09632 4.17632 12.7249 -2.11717 1.31498 0.107876
65 3 7.90229 4.72844 12.7206 2.1685 -1.235 -0.172872
37 3 3.6772 3.8137 14.0291 -0.31612 -0.389113 -0.391738
85 4 3.93116 2.57535 12.7447 0.16942 -0.398159 -0.104699
92 4 3.73101 2.87405 14.9431 -0.255122 0.344165 0.463899
81 4 3.11146 4.54258 14.4049 0.0755013 -0.3357 0.535027
48 3 3.90154 2.07307 15.6932 1.09573 -0.0240575 -1.35663
83 4 1.17882 1.70761 14.0036 0.405798 0.0630308 0.166671
61 3 6.95913 1.80609 13.7546 -0.314586 -3.63668 0.430519
93 4 4.80805 4.36386 14.4463 -0.3596 0.218276 0.149666
54 3 5.47481 5.08639 14.858 2.04163 -0.234083 1.88131
31 3 8.74035 5.44188 15.6244 -0.142545 -0.334193 0.684239
1 1 7.40549 6.51084 14.33 -0.117095 0.184527 -0.591593
45 3 3.27833 1.61525 18.6317 -0.377646 -0.0289657 0.235571
34 3 1.9091 3.66202 17.6496 0.142295 -0.48153 0.656853
74 4 3.25786 2.21085 16.3799 -0.922537 0.112214 0.75124
100 4 5.08669 2.91092 17.0705 -0.0435113 0.549107 0.424933
63 3 5.46827 3.66339 17.6196 0.518749 -1.15793 -0.508115
103 4 6.44069 3.47256 17.5749 -0.251116 0.336443 0.100216
89 4 4.08131 5.65542 17.8477 0.931424 -0.383341 -0.158231
40 3 3.23872 6.07824 18.0234 -1.18661 -0.321008 -0.388306
95 4 5.83668 4.68101 15.7325 -1.29697 0.580856 -1.64789
13 2 8.6462 5.26923 17.2249 1.14724 0.627961 0.17391
26 3 7.35369 6.00615 17.8811 -0.0789657 -0.871778 -0.778802
70 3 7.78838 2.45712 20.0144 -0.758658 -0.274071 0.139978
15 2 2.35021 2.88753 19.123 0.813417 1.60917 0.468778
4 1 1.85077 3.10278 22.2667 0.30936 0.185548 0.17114
9 1 5.38256 3.20375 20.4069 0.416071 -0.17337 -0.0387945
42 3 3.25092 3.92254 20.0846 -0.940604 -0.795549 -0.591808
5 1 3.35533 6.2572 20.4809 -0.112482 -0.111673 -0.361359
60 3 5.70936 5.41048 20.0826 0.397932 1.23612 -0.493184
12 2 6.66955 6.46608 19.278 -0.540742 0.456519 0.503267
28 3 7.79067 7.03302 20.3137 0.101015 -0.250951 0.277473
32 3 1.54891 3.14874 24.7438 -0.249259 -0.189882 1.36558
86 4 8.31434 4.09718 25.0281 -0.240019 -0.759056 -0.361511
53 3 4.04388 2.37619 22.7276 0.652586 0.509298 0.413398
19 2 5.11992 3.258 23.574 0.645861 0.257431 0.0761334
62 3 5.69589 2.42417 24.9653 0.242271 0.236072 -0.584853
21 2 7.23977 2.02455 25.5472 -1.19668 3.63964 -1.76364
36 3 8.93078 5.47772 22.946 -0.840667 -0.686438 -0.630883
44 3 3.52224 6.75583 25.1103 0.146421 -2.08004 -1.12761
52 3 4.28848 6.92966 22.5259 1.01763 0.0701985 -0.470647
16 2 3.59869 5.95734 23.5877 -0.516085 1.03355 1.15561
55 3 4.49182 4.72473 24.1636 0.513205 -1.85152 0.24482
66 3 6.32924 3.73574 22.5727 -0.206353 -0.151721 -0.147699
2 1 6.77422 6.25459 22.3856 -0.277695 -0.288808 0.232637
25 3 6.92714 6.24916 24.8533 0.186931 -0.386146 -0.758526
78 4 7.35874 7.10174 25.0892 -0.137903 0.106971 0.338508
84 4 3.36871 7.62802 27.7745 -0.608509 0.287978 -0.269184
69 3 7.092 2.20805 27.1381 0.500559 0.152744 1.35103
77 4 6.37493 5.85022 25.5562 -0.0573465 0.38214 0.431278
98 4 4.7762 4.86348 25.9405 0.929219 0.0454521 0.989817
58 3 5.29379 5.10509 26.7965 -1.64226 -0.150942 -0.452382
94 4 4.60964 5.66447 27.2623 0.6788 -0.203611 -0.193583
