ITEM: TIMESTEP
10204
ITEM: NUMBER OF ATOMS
62
ITEM: BOX BOUNDS xy xz yz pp pp pp
-1.6066238406389772e+00 1.1128214590025014e+01 -6.5559535155075691e-02
-1.7246141254059022e+00 7.4376267934414484e+00 -1.5278179460738055e+00
2.8290470498212095e-02 9.3464081242176995e+00 -1.7383428932820688e+00
ITEM: ATOMS id type x y z fx fy fz
35 3 2.24505 1.06223 1.51473 0.0935497 -1.26933 -0.507947
16 4 3.77224 1.21066 1.84983 -0.746325 0.209535 2.15149
44 3 4.99792 0.863145 0.917665 -0.0680724 -0.276171 0.18885
53 3 7.76501 0.922908 1.34595 -0.658997 -0.0454364 -0.688718
25 3 10.4674 1.01088 1.38576 0.43507 -0.242161 -0.549676
22 4 9.09438 0.669838 2.13336 -0.0881114 -1.1284 -0.0840763
2 1 0.892862 2.7394 1.33358 -0.765137 0.913058 -0.133745
40 3 3.96685 2.80023 2.44679 0.582468 -0.532223 0.193764
15 4 3.7114 4.44157 1.99417 -3.09528 -0.675857 0.243984
7 1 6.381 2.70538 1.30152 0.598678 0.705011 0.246701
3 1 0.828387 6.54603 1.49875 0.275788 -0.308357 -0.23881
34 3 2.22968 4.59733 1.3503 0.838599 0.591688 0.754387
8 1 6.40506 6.39209 1.32317 0.561749 0.220865 -0.182265
43 3 4.90371 4.74429 1.03055 1.138 0.340604 -0.775612
52 3 7.78033 4.54441 1.35233 -0.303839 -0.345776 -0.245587
26 3 10.5144 4.54513 0.993896 -0.0307883 0.674724 0.315721
21 4 9.22723 4.85278 1.88708 -0.0587263 -0.155057 0.475617
58 3 9.14975 6.38942 2.55904 0.511078 1.09423 0.0572152
1 1 -0.932752 -0.29414 4.7116 0.391003 -0.350789 -0.00283487
37 3 3.465 -0.498342 5.70027 -0.558086 -0.403472 -0.219293
38 3 3.99388 0.231041 3.29127 0.133407 1.15371 -0.827882
60 2 4.40339 -0.026358 5.80745 1.20176 0.0564194 -0.0893085
46 3 5.6298 0.407632 5.97417 -0.893107 -0.291994 -0.66605
61 2 5.18387 -0.0766057 3.39859 -0.547691 -0.460414 1.19065
19 4 6.60385 -0.781823 5.25969 -2.44648 -0.0672415 -1.97485
48 3 6.18022 -0.482648 3.61946 0.354827 -0.379766 0.659513
54 3 8.09199 -0.640831 5.61014 2.54469 0.207518 0.746214
13 4 0.914182 2.81993 5.24209 1.34533 0.14613 0.38426
28 3 -0.147843 3.9916 5.97563 0.624843 0.894754 1.08106
29 3 0.319621 1.3978 5.85033 -0.0345149 0.812635 -0.293768
30 3 0.431475 2.97973 3.68432 -0.337218 1.08182 0.152698
59 2 -0.568042 3.66036 3.6082 0.290134 -1.74531 -0.883826
36 3 2.50374 3.00064 5.62977 -1.67153 -0.170314 -0.975388
6 1 4.65202 3.25064 4.64905 0.713616 0.176519 0.450458
49 3 6.86047 2.92083 3.77005 1.06048 0.311973 0.138535
20 4 8.44022 2.84303 4.12114 -1.58804 -0.288331 0.624841
55 3 8.87093 3.19784 5.71038 0.43169 -0.147074 -0.748832
56 3 8.97847 1.33194 3.65973 0.73405 0.405057 0.311684
57 3 9.46881 3.92229 3.34002 0.259218 1.08971 -0.19661
62 2 9.92953 3.61299 5.82455 -0.935991 -0.244938 -0.341488
31 3 1.33785 6.60092 3.91734 0.812586 -0.109832 -0.395077
14 4 2.92453 6.54219 4.1481 0.718783 -0.0766351 -0.452255
39 3 3.75519 5.15076 3.54811 -0.781679 0.0343025 0.179726
47 3 5.94454 5.2412 5.88377 -0.703576 -0.731241 0.763871
12 4 0.379578 0.716658 7.38817 0.110688 0.44755 0.0270797
27 3 0.00734036 -0.793477 6.73062 0.0696489 -1.65615 0.457583
24 3 -0.866879 1.13927 8.30153 -0.601832 -0.717386 -0.0833545
32 3 1.75367 0.962746 8.13055 0.723551 -0.599178 -0.270473
4 1 3.26833 -0.95939 8.04546 0.0574142 0.529021 -0.605061
41 3 4.65998 0.951458 8.31804 -0.338884 0.108394 0.225392
50 3 7.35325 1.16532 7.96175 0.103898 -0.674782 -0.236062
17 4 5.89615 1.27793 7.36336 -0.586524 1.75956 0.312736
9 1 8.57713 -0.816762 8.07516 0.0545291 0.0470157 0.270277
5 1 3.03349 2.87567 7.87013 0.122774 -0.0366066 0.779763
45 3 5.5974 2.87219 6.72783 0.377281 -1.07115 0.319744
10 1 8.85098 2.84163 7.9523 0.0780088 0.319887 0.843807
11 4 0.179305 5.07293 7.35139 0.209623 -0.0693727 -0.110625
23 3 -0.974943 4.8647 8.44911 0.0123491 -0.0536936 -0.347849
33 3 1.69953 4.83752 7.74651 -0.466053 -0.284783 0.0189646
18 4 5.94414 4.39987 7.4046 -0.429907 -0.438623 -1.92493
42 3 4.6336 4.61756 8.28695 -0.628809 0.84227 0.297383
51 3 7.321 4.50886 8.1452 0.794042 0.873871 0.188281
