ITEM: TIMESTEP
5203
ITEM: NUMBER OF ATOMS
88
ITEM: BOX BOUNDS xy xz yz pp pp pp
3.0040133910444577e-02 9.7630052127190083e+00 2.6924100986905728e+00
-3.0465805422907866e-01 6.2169879022363954e+00 2.9693524793890741e-01
-1.1074228588272028e-01 2.2516188642882632e+01 -2.7248512599270369e-01
ITEM: ATOMS id type x y z fx fy fz
1 4 8.58619 4.61991 9.76186 -1.52647 -0.781445 1.55796
2 4 8.87659 4.4306 12.9614 -0.683074 1.07209 2.13561
3 4 3.19336 5.94654 3.66988 2.02122 1.8424 -1.89621
4 4 3.48573 5.61362 19.2324 0.692205 1.03562 -1.05357
5 4 5.12378 4.68288 1.71181 0.610959 -1.76396 0.459276
6 4 5.59743 2.35398 3.69497 1.59848 -0.114098 -1.45328
7 4 5.49646 4.21765 21.1697 -2.24968 -0.701168 -1.29353
8 4 5.98029 1.98689 19.2483 -0.672368 -0.0476275 0.15218
9 4 6.71451 6.00569 7.82111 0.0300114 -0.458795 -0.515461
10 4 7.01313 5.8866 15.0614 1.02134 -0.366444 -0.760429
11 4 2.28036 2.36155 7.7756 -0.77466 0.67316 -0.563483
12 4 2.7724 2.20587 14.866 -1.74569 -0.7339 0.617631
13 3 5.51755 0.160495 15.9897 0.677441 0.116243 0.263899
14 3 8.5201 4.43938 11.4163 0.2346 0.868633 -2.17505
15 3 2.28572 4.94871 4.42533 -1.53233 -1.34624 1.24932
16 3 8.49328 4.2443 22.1821 1.19042 0.0292289 -0.0915078
17 3 2.4704 4.64522 18.4464 0.040155 -0.0421701 -0.392966
18 3 3.16421 3.33752 6.82354 0.338601 -0.180262 0.233694
19 3 3.12064 5.37071 9.16282 2.10029 1.55594 0.401894
20 3 3.79805 5.3944 2.17677 -1.68282 0.868426 1.1185
21 3 3.44466 5.31691 13.5749 -1.31764 -0.258474 -0.492549
22 3 3.69757 3.0836 15.8254 0.663941 0.951688 0.017204
23 3 4.30853 0.874206 0.362682 0.809793 -0.591923 -0.554581
24 3 4.32407 1.8944 4.51467 -0.725997 -0.452715 0.786581
25 3 4.08524 4.85287 20.5628 0.38036 0.0225007 0.660192
26 3 3.05161 0.679024 11.5004 -0.0980602 -0.141304 -1.43294
27 3 4.68954 1.56742 18.3435 0.125827 0.283048 0.0611378
28 3 4.99319 4.64819 0.106931 0.682468 -0.114572 0.260765
29 3 5.31355 0.211028 6.97028 -0.375081 0.167279 -0.557592
30 3 5.16572 3.11702 2.2737 -0.401545 0.565492 -0.34987
31 3 5.75544 4.97337 6.93085 0.829163 1.27272 1.1114
32 3 5.32922 4.31541 12.0418 -1.93172 -2.93706 0.945921
33 3 5.16346 2.64705 9.52595 -0.457569 -0.509115 -0.23502
34 3 5.42385 2.65009 20.6827 0.350679 0.66339 0.267821
35 3 5.87008 2.14573 13.5991 0.436644 0.985213 0.637018
36 3 6.60481 3.30918 4.53754 -0.464191 -0.251116 0.301394
37 3 6.16527 4.85117 15.9283 -1.43598 -0.279092 0.379502
38 3 6.44044 5.39545 2.32635 1.28641 0.6728 -0.082405
39 3 6.3768 0.981125 3.06738 -0.363179 0.696369 0.707703
40 3 6.70364 0.65266 19.8517 0.167731 -0.543206 0.161992
41 3 6.97348 2.95613 18.3975 -0.667731 -0.247491 -0.134647
42 3 6.72695 4.99937 20.4763 0.960118 0.587364 -0.07302
43 3 7.25705 5.43397 9.27258 -0.308261 -0.562105 0.914004
44 3 7.01445 1.47824 0.271076 -0.00941611 0.332374 0.583149
45 3 7.68348 1.92575 6.95066 0.908334 -0.436943 0.71499
46 3 7.53836 5.09258 13.7334 1.65501 -1.12363 -1.46504
47 3 1.58681 1.61288 15.8881 -0.0124269 0.606144 -1.274
48 3 1.74432 0.160853 4.61384 0.196711 0.188793 0.101784
49 3 7.18038 1.25358 11.2599 0.407606 -1.13987 0.547189
50 3 1.89909 3.12894 9.19571 -0.224989 -0.665778 -0.242228
51 3 2.40415 2.63508 2.05158 2.85475 0.673521 1.80585
52 3 1.97053 -0.039167 18.2355 -0.191382 -0.767456 0.31318
53 3 2.36614 2.86647 13.3402 -0.0684934 -0.280877 1.59935
54 3 2.43562 1.9585 20.724 -0.267205 1.91392 0.201199
55 3 3.18439 1.08864 8.3733 -0.555367 -0.230303 -0.396634
56 3 3.55681 0.875946 14.2567 -0.0774806 -0.394061 0.152868
57 2 8.33352 4.13675 0.449432 -0.0416062 0.0563906 0.114468
58 2 3.44699 2.50873 1.9885 -2.25582 0.375425 -0.128953
59 2 2.65353 4.53665 21.8714 -0.243165 -0.0306647 0.212647
60 2 3.41044 2.14871 20.8017 -0.511001 -0.215792 0.247125
61 2 3.73144 0.32765 10.8975 -0.0876397 -0.0581561 -0.510764
62 2 5.19238 1.33933 0.38613 -0.197029 -0.038291 0.0108691
63 2 4.22208 5.10924 12.9897 0.435344 -0.124393 -0.278064
64 2 4.81086 -0.0905935 22.2974 -0.451567 0.809005 0.718712
65 2 5.11521 1.60216 13.3688 -1.00423 -0.442743 0.163752
66 2 3.49526 0.791642 12.3321 0.310513 0.449498 1.638
67 2 4.33018 2.07812 9.5463 0.915534 0.888676 0.0852186
68 2 5.93871 5.00638 12.1107 1.9546 2.1797 0.00496128
69 2 5.56616 3.69687 12.8264 -0.125772 0.133582 -1.20258
70 2 5.01589 3.44769 10.0758 -0.0839821 -0.295532 0.0659029
71 2 6.54589 1.80231 12.9961 0.955568 -0.206767 -0.704642
72 2 1.01406 0.87558 22.1052 0.205097 -0.211371 -0.381133
73 2 0.483873 0.890107 1.02821 -0.0657302 -0.0924579 -0.141545
74 2 7.59429 4.721 20.8826 -0.578491 0.166566 -0.253569
75 2 3.44474 6.13799 9.71366 -0.360507 -0.311031 -0.145739
76 2 2.01735 2.31047 1.25927 -0.802918 -1.1215 -1.55798
77 2 6.81933 1.90329 10.6423 0.206378 0.50997 -0.427089
78 2 1.44248 1.19888 11.3058 -0.693216 0.545362 -0.274153
79 2 1.96721 2.81419 21.1026 1.17418 -1.84558 -0.497282
80 2 6.95622 6.06539 1.76601 -0.705886 -0.130959 -0.0891852
81 1 3.54039 5.72997 6.7832 -0.613826 0.0242028 -0.685016
82 1 3.77503 5.47059 16.0013 -0.00356102 0.265824 0.519974
83 1 5.49663 2.69631 6.76571 0.112629 -0.368656 -0.055388
84 1 5.99084 2.41384 16.2292 0.0526377 0.144925 -0.324154
85 1 6.80051 5.72748 4.79396 -0.198685 -0.210423 -0.405715
86 1 6.99853 5.54019 17.9967 0.258078 -0.342075 0.731896
87 1 2.11751 2.70564 4.64632 -0.141869 -0.488417 -0.0750091
88 1 2.43765 2.3324 18.1674 0.135482 -0.195476 -0.311715
