62
Lattice="11.2714 0.0 0.0 -0.043430255 7.399172541 0.0 -0.324002368 -1.991989071 9.511957932000001" Properties=species:S:1:pos:R:3:energies:R:1:forces:R:3 energy=-456.500244140625 free_energy=-456.500244140625 stress="0.008041542023420334 -0.00115887017454952 -0.0024281491059809923 -0.00115887017454952 0.008868509903550148 -0.004114752169698477 -0.0024281491059809923 -0.004114752169698477 0.007028344552963972" pbc="T T T"
Ca      -0.19209645      -0.56149260       4.74658770      -7.06267977       0.00169313       0.00173819      -0.00005011
Ca       1.60068202      -0.94338191       1.19775629      -7.23930359      -0.00168951      -0.00085113       0.00180222
Ca       1.51693675       2.74863221       1.04737063      -7.25020313       0.00103733      -0.00061605       0.00368364
Ca       3.65170091       2.65323643       8.31208672      -7.23806047      -0.00032073       0.00011998      -0.00092289
Ca       3.80177109      -1.09244511       8.47574855      -7.25478649      -0.00018726      -0.00014218       0.00062705
Ca       5.42677002       3.13798098       4.74774367      -7.06243610      -0.00258733       0.00041778      -0.00044561
Ca       7.21386620       2.75586099       1.19953655      -7.23975754      -0.00095967      -0.00031137      -0.00046355
Ca       7.17505279      -0.95143018       1.05292252      -7.25039387       0.00020598       0.00117884      -0.00054859
Ca       9.30914788      -1.04634600       8.31173317      -7.23770571       0.00056501       0.00028573      -0.00073045
Ca       9.41564998       2.60676834       8.47493691      -7.25526428       0.00034996       0.00074259       0.00127433
Si       0.86936749      -2.64751370       7.47999391      -7.79948282       0.00099103       0.00107586      -0.00022532
Si       0.92849921       0.48783400       7.40313687      -7.77722836      -0.00256718       0.00272485      -0.00273428
Si       1.80542223       2.65882776       5.41280654      -7.65299988       0.00335727       0.00344174      -0.00832256
Si       3.45766143      -0.97728327       4.11392957      -7.65673637       0.00180743       0.00121300       0.00239069
Si       4.36014276       4.32162909       2.07185563      -7.79733896      -0.00301906       0.00090047      -0.00000494
Si       4.41095138       1.14702721       2.07759416      -7.77209234       0.00459513      -0.00128826       0.00153924
Si       6.48289929       1.05220706       7.48271746      -7.79930496      -0.00156609       0.00402051      -0.00553221
Si       6.54115664       4.18762196       7.40777895      -7.77775145      -0.00163892      -0.00115383      -0.00454332
Si       7.45825248      -1.04008684       5.41463502      -7.65404034       0.00106634       0.00163307      -0.00142371
Si       9.07638895       2.72378539       4.11355466      -7.65802479       0.00442276      -0.00005122       0.00320946
Si      10.01872279       0.62313920       2.06905819      -7.79676151      -0.00103152       0.00025164       0.00361874
Si      10.02578218       4.84693989       2.07661155      -7.77181053       0.00333840       0.00093824       0.00069246
O       -0.53976956       4.50353684       8.29175876      -7.24953938       0.00105176      -0.00047595       0.00027783
O       -0.44998905       0.80400724       8.17330619      -7.20506382      -0.00038771       0.00029955      -0.00002570
O        0.14085788       0.94844008       1.34175153      -7.18838358       0.00252171       0.00194185      -0.00168161
O        0.10655229       4.56780704       1.24716413      -7.25910854       0.00148098      -0.00049521       0.00077934
O        0.82169567      -1.09366240       6.83915532      -7.29496717      -0.00098698      -0.00044817       0.00007941
O        0.83176201       3.82983864       6.09526198      -7.28882265      -0.00169014       0.00162932       0.00106105
O        1.04017185       1.24391578       5.90904220      -7.22387934      -0.00288370      -0.00557954       0.00615306
O        1.48502419       2.82290326       3.78269089      -7.44344568      -0.00025840      -0.00304333       0.00501388
O        1.92143638      -0.94313143       3.67217204      -7.26094007      -0.00098737      -0.00132682       0.00021918
O        2.20972665       0.72660052       8.34297272      -7.33582354       0.00070590       0.00056614       0.00261381
O        2.18732138      -2.86644132       8.38743478      -7.35944366      -0.00037303       0.00041896       0.00035928
O        3.07964513       4.56887818       1.12684522      -7.33267832       0.00252739      -0.00080330      -0.00065765
O        3.09627408       0.92910668       1.17119052      -7.35863733       0.00031503      -0.00100261       0.00092386
O        3.34321957       2.71853517       5.84420857      -7.26872969      -0.00171613       0.00085688       0.00019802
O        3.78260596      -0.88525199       5.74859496      -7.43060637      -0.00115048       0.00011710       0.00076517
O        4.21896139       5.04774922       3.57793543      -7.20167875       0.00036834      -0.00421621      -0.00323879
O        4.39751860       0.26549214       3.48843346      -7.29706144      -0.00088267       0.00026800      -0.00097690
O        4.46789426       2.72935829       2.63409047      -7.32664728       0.00165437      -0.00334064      -0.00078686
O        5.20611856      -2.89630668       8.17798381      -7.20519543      -0.00008939       0.00145441       0.00011694
O        5.11882929       0.80454220       8.29738658      -7.25047112      -0.00128766      -0.00090972      -0.00025113
O        5.75510534       4.64841289       1.34790868      -7.18760777       0.00107292       0.00024187      -0.00248033
O        5.76438104       0.86747536       1.25038951      -7.25842619      -0.00251917      -0.00031895       0.00040056
O        6.43529655       2.60639256       6.84255514      -7.29456091      -0.00011868      -0.00163840       0.00136502
O        6.48501187       0.13161918       6.09690878      -7.28874636       0.00114082      -0.00155682      -0.00047210
O        6.65156756       4.94414584       5.91408699      -7.22435522      -0.00012299      -0.00026293       0.00027153
O        7.13452005      -0.88163161       3.78497532      -7.44418669       0.00305063       0.00203929      -0.00056607
O        7.53973985       2.75794177       3.67357618      -7.26126719      -0.00479320      -0.00106562      -0.00065765
O        7.80214399       0.83243611       8.38769319      -7.35896587       0.00175397      -0.00066365       0.00068711
O        7.82307215       4.42615531       8.34650925      -7.33569002       0.00135566       0.00168625       0.00172959
O        8.71025988       4.62701160       1.17224686      -7.35782671      -0.00093890       0.00026072       0.00009989
O        8.73676378       0.87025661       1.12655816      -7.33201694      -0.00176264       0.00132976      -0.00217996
O        8.99666416      -0.97795668       5.84317253      -7.26919079      -0.00099789      -0.00321805       0.00001760
O        9.40140868       2.81355601       5.74816953      -7.43079090      -0.00410237      -0.00105847       0.00012853
O        9.88032183       1.34984842       3.57507992      -7.20286179      -0.00039691      -0.00245457      -0.00111526
O       10.01535966       3.96788079       3.48899310      -7.29627323      -0.00262309       0.00070970      -0.00089575
O       10.12530329      -0.96914576       2.63152552      -7.32745123      -0.00078605      -0.00354308      -0.00040291
H        0.61681101       3.27811022       3.67706234      -7.20993519      -0.00150488      -0.00056996      -0.00071974
H        4.65995850      -0.44657706       5.86893317      -7.21224642       0.00141399       0.00040973       0.00232630
H        6.26148295      -0.43556384       3.67871277      -7.20975924       0.00173911       0.00606553      -0.00199083
H       10.27984702       3.24967802       5.86975541      -7.21271086       0.00334510       0.00142831       0.00062165
