ITEM: TIMESTEP
5042
ITEM: NUMBER OF ATOMS
62
ITEM: BOX BOUNDS xy xz yz pp pp pp
-4.3182785473235236e-01 1.1219602744159978e+01 -1.7071287563633733e-01
-1.8873607899029887e+00 7.3769690261076297e+00 -1.5648046555100864e-01
-8.9821837115698244e-02 9.4645204318317653e+00 -1.9617473251129323e+00
ITEM: ATOMS id type x y z fx fy fz
1 1 -0.134348 -0.486972 4.65185 -0.257814 -0.374877 0.043818
2 1 1.55464 2.79056 1.18788 0.419598 0.0887995 -0.521814
3 1 1.32618 6.38182 1.20764 0.754021 -0.107942 -0.935596
4 1 3.57085 -0.923861 8.32783 -0.55143 -1.12447 -0.0642274
5 1 3.66941 2.61202 8.27476 -0.255407 0.656765 0.199173
6 1 5.40991 2.48824 4.69631 -0.0235125 -0.00884932 -0.437031
7 1 7.16267 2.78428 1.08184 0.149234 0.235558 0.222207
8 1 7.2018 6.4885 1.13648 -1.12976 -0.791334 0.0435686
9 1 9.40097 -0.903595 8.23318 -0.501766 -0.117193 -0.0922883
10 1 9.26786 2.73624 8.25401 -0.398724 -0.353969 0.162482
11 4 0.695607 4.75791 7.44491 0.499352 -0.13149 0.16086
12 4 0.853684 0.589003 7.29463 -0.55852 0.728563 1.50853
13 4 1.80044 2.74951 5.44859 0.110402 0.797006 -0.488223
14 4 3.29993 6.39223 3.90951 -0.310034 0.00789649 0.327199
15 4 4.37358 4.28407 1.89101 -0.472772 1.5503 -0.529508
16 4 4.45188 1.16539 1.96594 0.0815643 0.332816 -0.259825
17 4 6.35114 1.15833 7.38694 -2.19844 -0.24313 -1.2332
18 4 6.27519 4.4708 7.39395 -0.762368 -2.32958 1.86387
19 4 7.45701 -0.905621 5.37618 -0.0422922 0.146298 -2.01858
20 4 8.9984 2.88246 4.0314 -3.14678 -0.9899 -1.32957
21 4 9.95243 4.83933 2.00744 1.42987 0.0428548 0.737335
22 4 10.1279 0.73493 1.96107 -1.44716 0.700314 -0.680332
23 3 10.6306 4.47719 8.14094 -1.38882 0.760278 0.847296
24 3 10.7834 1.04368 7.99339 -0.493222 -1.00047 -0.799727
25 3 0.240817 1.04951 1.31905 -0.750363 -0.20797 0.0253747
26 3 0.0169281 4.44756 1.24258 -0.666463 0.648727 0.887534
27 3 0.878294 -1.00668 6.73409 -0.339477 0.607289 0.668437
28 3 0.68019 3.87033 6.07822 1.21266 -1.53569 -1.43742
29 3 1.01915 1.30369 5.78904 0.152768 0.0707131 -0.21883
30 3 1.68605 3.04226 3.80462 0.702486 -1.13274 0.0048818
31 3 1.72603 6.38606 3.44761 1.14701 0.00229621 0.76201
32 3 1.98405 0.893429 8.39801 0.72076 -0.432495 -0.637211
33 3 1.94171 4.47423 8.40326 0.110218 0.206847 -0.0641409
34 3 3.03701 4.5432 0.989316 0.255861 -0.058035 0.555144
35 3 3.1706 0.889243 1.02076 0.188789 0.0961506 0.411056
36 3 3.35809 2.71926 5.85297 -0.966719 0.0180736 0.258869
37 3 3.64652 -1.07383 5.56818 -0.24549 0.168962 -0.387882
38 3 4.27975 0.539365 3.50635 -0.439556 -1.31307 0.230891
39 3 4.31185 5.19551 3.2982 -0.607557 0.615441 0.23363
40 3 4.39319 2.75877 2.51343 0.310608 0.074361 -0.134694
41 3 4.97338 0.622618 8.12617 1.46463 2.12414 -0.915959
42 3 4.80274 4.65606 8.07016 1.41106 -0.110554 -0.373083
43 3 5.68888 4.68383 1.05718 0.279904 -0.638968 0.0421686
44 3 5.92113 0.942428 1.34241 -0.860246 -0.381057 0.234953
45 3 6.22759 2.79485 6.80279 0.158093 -0.918982 1.12539
46 3 6.51156 0.324807 5.9035 -0.0317576 2.34578 0.893161
47 3 6.31316 5.19968 5.95371 0.38701 -0.516709 -0.539611
48 3 6.91727 6.40247 3.69001 0.0978866 -0.0730472 0.536444
49 3 7.42632 2.92603 3.50807 1.35761 -0.00411816 0.879696
50 3 7.55719 0.901995 8.33358 2.62126 -0.00693838 1.08765
51 3 7.59126 4.58011 8.38096 -0.721965 0.0591587 -1.18623
52 3 8.70027 4.59658 1.03742 -0.0152625 0.330244 0.314913
53 3 8.81731 0.778571 0.97603 1.65504 1.26452 -0.0928402
54 3 9.0197 -0.96945 5.75144 -0.380157 0.326009 -0.0108614
55 3 9.19353 2.73592 5.65635 1.54998 0.477012 0.669463
56 3 9.71898 1.59402 3.31221 1.16465 -1.16254 0.253818
57 3 9.95695 4.08162 3.54295 0.432779 2.08696 -1.34485
58 3 10.0791 6.5004 2.57512 -0.0648268 -2.00465 -0.35561
59 2 1.00684 3.64262 3.52018 -1.14898 0.986897 0.145198
60 2 4.36116 5.86473 5.76683 0.218055 -0.133382 0.0228936
61 2 6.10326 -0.98701 3.51577 0.945757 -0.141737 0.491659
62 2 10.158 3.03578 5.76615 -0.811273 -0.211133 0.23758
