ITEM: TIMESTEP
15204
ITEM: NUMBER OF ATOMS
88
ITEM: BOX BOUNDS xy xz yz pp pp pp
-3.3422734119001429e-02 9.8249075252474842e+00 2.6908673115027586e+00
-3.0285132239706691e-01 6.2151974756463346e+00 2.9691747962568515e-01
-1.1006529923532860e-01 2.2515511656235347e+01 -2.7246882075073142e-01
ITEM: ATOMS id type x y z fx fy fz
1 4 3.02655 2.66731 5.15701 0.613077 -0.774847 -1.3487
2 4 3.30727 2.58126 8.32499 0.326595 0.0413592 1.10527
3 4 4.84204 3.94134 21.7074 1.14447 -0.365854 0.0929954
4 4 4.88652 3.81138 14.3215 -0.638184 0.991124 1.14729
5 4 6.67457 2.60326 19.7142 1.25998 -1.65031 -1.19816
6 4 7.3303 0.351621 21.7419 -0.399514 -1.46274 1.47853
7 4 6.66121 2.34707 16.4598 1.58332 0.26325 -0.128811
8 4 0.489957 0.202928 14.5022 0.702783 -1.18692 0.687205
9 4 7.97469 4.13271 3.2549 0.546658 -1.15967 0.194901
10 4 8.28175 3.9558 10.3569 -0.552661 -0.686071 -0.560126
11 4 3.53199 0.354925 3.20248 0.404975 0.554451 -1.50734
12 4 3.83443 0.284377 10.2329 1.10357 0.467338 0.548917
13 3 2.63939 4.47511 11.2441 0.201386 0.216485 0.318501
14 3 3.18709 2.48393 6.7518 -0.671997 0.355977 -0.784907
15 3 3.63542 3.13126 -0.113232 -0.101161 0.527161 -0.0785482
16 3 3.07476 3.04985 17.49 1.04117 0.738014 -0.377002
17 3 3.91619 2.81324 13.5103 0.0947799 0.656546 -0.537909
18 3 4.46122 1.33157 2.21954 -0.316256 -0.619594 1.09812
19 3 4.44475 3.40551 4.62237 -1.24931 0.432214 0.471903
20 3 5.3575 3.31624 20.2147 -1.13688 0.510643 0.703423
21 3 4.56529 3.62035 8.74777 -0.845754 -1.30624 0.0865329
22 3 4.83498 1.2446 11.1521 -0.468961 -0.659913 -0.479448
23 3 7.94152 5.53325 18.7087 0.226736 1.63291 -1.40942
24 3 6.08429 -0.175719 22.6574 -0.0468299 0.0447001 -0.719267
25 3 5.36262 2.9407 15.6813 0.129878 -0.126727 0.206538
26 3 7.54706 5.36697 6.87251 -0.2783 -0.023691 2.53526
27 3 6.07361 -0.236678 13.6196 -0.142742 0.601869 0.18501
28 3 6.52018 2.37572 18.0581 -0.315205 0.0796438 0.682671
29 3 2.37747 4.52571 2.29625 -0.788079 -0.117084 0.686048
30 3 6.8949 1.04731 20.3392 -0.571278 1.68698 -1.33381
31 3 6.98321 3.08294 2.51601 0.300647 0.0500657 -0.355144
32 3 6.4516 2.67354 7.23227 -1.26659 -1.22675 -0.0835942
33 3 6.90986 0.779171 4.61955 -2.33461 -0.22725 0.409695
34 3 7.01054 0.759973 16.0943 -0.188071 0.662475 -1.1593
35 3 0.494101 0.521507 8.60323 -0.758455 -1.28081 0.251929
36 3 1.14169 1.47632 0.0737121 0.0995736 0.84181 0.0245374
37 3 7.32946 2.91874 11.2222 0.317422 0.912904 -0.425814
38 3 8.07096 3.3867 19.9674 0.86761 1.04713 -0.279596
39 3 4.019 5.27404 21.2935 -0.192316 -0.272166 -0.776062
40 3 3.92584 5.03642 15.0275 0.821362 -0.634039 -0.974976
41 3 1.55078 1.12851 13.6618 -0.990868 -0.0518161 0.143244
42 3 7.9817 3.26551 15.8816 -0.92405 -0.132784 -0.070239
43 3 1.59371 3.36438 4.70397 1.19742 0.0822895 0.430112
44 3 4.63683 5.51177 17.6506 -0.62614 0.803221 -0.701922
45 3 4.9548 6.08919 2.34597 0.0279228 -0.269428 0.320128
46 3 2.0006 3.21732 8.99597 -0.918652 0.519718 0.137183
47 3 5.25868 6.03338 11.0586 -0.625784 -0.325638 0.5958
48 3 5.84618 4.58203 -0.00133164 0.0455945 -0.18068 -0.337402
49 3 4.60583 5.63694 6.31768 -0.415663 -0.378009 -0.163851
50 3 3.04442 1.14108 4.54718 -0.119106 1.20793 0.759593
51 3 3.46532 0.955134 20.3658 0.430261 1.19265 -3.02897
52 3 6.16647 4.41563 13.5208 -0.562739 -0.291447 0.135471
53 3 3.39032 1.03385 8.85459 0.351618 0.603548 -0.530569
54 3 4.20785 -0.165412 16.2987 -0.627562 0.798439 0.255684
55 3 7.11315 5.36296 3.90941 -0.039684 0.848876 -0.56575
56 3 7.38886 5.20553 9.65115 0.42708 -0.436914 0.454668
57 2 3.41471 3.93197 17.8001 -0.504564 -0.0178974 0.446795
58 2 4.07437 0.664655 19.5822 -0.975815 0.106738 1.72615
59 2 3.7964 2.9892 16.8188 0.189025 -0.884371 -0.136244
60 2 7.30829 5.30153 15.8922 0.0274798 -0.731092 -0.0850039
61 2 8.19447 4.83703 6.41452 0.696253 -0.518545 -0.882523
62 2 7.61647 5.84534 17.7593 0.308144 -0.789194 0.839982
63 2 5.2813 3.22612 8.14771 1.03942 0.345915 -0.0314592
64 2 6.03759 -0.132051 18.8638 -0.230012 -0.20058 0.326494
65 2 2.553 6.0118 8.43992 0.157311 0.966455 0.0600805
66 2 7.68476 5.15068 7.88218 -0.573978 0.679275 -1.69124
67 2 5.91431 0.67608 4.87492 1.98996 -0.0194469 -0.273864
68 2 6.97092 3.46264 7.14061 0.898162 1.07654 -0.268001
69 2 6.97363 1.92956 7.62017 -0.0111784 0.123945 0.216249
70 2 7.02699 1.7484 4.65986 0.206384 0.369719 0.2184
71 2 1.30434 0.0960914 8.25244 0.491765 0.219279 -0.154375
72 2 4.74819 5.95881 18.5065 0.0253544 0.0733905 0.424367
73 2 4.07251 6.14119 17.08 0.257194 -0.773818 0.694589
74 2 1.9921 3.19899 16.4115 -0.646289 0.0389518 0.389779
75 2 4.54148 4.22147 5.21349 0.423071 -0.140291 -0.239549
76 2 3.13397 1.86655 20.0346 0.456273 -1.53933 0.78606
77 2 4.22588 6.23111 5.63338 -0.238113 0.0749069 0.114707
78 2 5.55737 5.83125 6.28112 0.529413 -0.104858 0.150964
79 2 5.97814 5.84538 16.661 0.606549 -0.283209 -0.164561
80 2 8.22435 4.25631 19.3245 -0.798017 -1.32059 1.14669
81 1 4.79678 3.6897 2.08194 -0.382489 0.249178 0.0209097
82 1 4.9264 3.65297 11.2018 0.103132 0.0509049 0.225183
83 1 6.87118 0.677939 2.16726 0.13868 -0.0342712 -0.561981
84 1 7.1617 0.628289 11.3635 0.215812 -0.400822 -0.0193375
85 1 8.26004 3.7356 0.213971 -0.471701 0.898301 -0.0448208
86 1 8.34375 3.51503 13.3695 0.570241 0.223736 0.244301
87 1 3.43209 0.846682 0.0467175 0.441878 -0.844176 0.630728
88 1 3.85293 0.578589 13.4316 -0.0918293 -0.419075 -0.339982
