ITEM: TIMESTEP
15180
ITEM: NUMBER OF ATOMS
104
ITEM: BOX BOUNDS xy xz yz pp pp pp
-2.1310275673626905e-01 9.5976096672795244e+00 2.7377384829968778e+00
5.9021953239078329e-02 6.5533759452649640e+00 -3.0733306499900576e-01
1.6593209662691955e-01 2.8257003562067801e+01 2.5938360002096533e-01
ITEM: ATOMS id type x y z fx fy fz
1 1 6.65652 0.876632 17.5278 -0.000312523 -0.0496089 0.593681
2 1 6.42552 0.773819 25.5104 -0.319446 -0.034559 0.383574
3 1 2.30152 0.350913 11.4621 -0.626119 0.351529 -0.217192
4 1 4.36922 3.85933 25.4849 -0.522306 -0.26735 -0.220358
5 1 3.03451 0.716052 23.5659 -0.112983 -0.224773 -0.00590108
6 1 6.83979 3.47151 11.6256 0.426168 -0.58207 -0.522359
7 1 8.22915 4.19638 3.41534 -0.0221143 -0.87151 0.263677
8 1 5.55219 0.250369 9.52796 -0.261501 -0.0243259 -0.634504
9 1 7.99531 3.89216 23.5767 -0.604855 -0.0600771 -0.647899
10 1 3.52613 3.39727 9.36841 0.402861 -0.184828 -0.160923
11 2 5.10885 2.34645 14.6606 0.172329 -0.921161 0.606316
12 2 6.3403 1.01131 22.4486 0.354782 -0.0264208 -1.31112
13 2 4.22394 5.81143 20.4489 0.0428653 1.10682 0.41096
14 2 1.978 0.471259 8.33281 0.116721 0.455717 0.276513
15 2 4.63019 3.50133 22.3684 -1.7774 1.11375 0.553584
16 2 3.09562 0.51799 26.6389 0.485211 -0.90011 0.65275
17 2 6.67657 5.3943 6.35061 -0.900618 -0.157603 0.569399
18 2 7.03822 3.02786 8.32517 0.714713 1.49172 0.3594
19 2 7.54047 4.07938 26.6365 0.772283 1.91005 0.65916
20 2 5.73046 0.146923 12.5234 -0.422826 1.65112 0.523659
21 2 2.98863 2.51678 0.574089 -0.757117 0.935634 0.673672
22 2 3.37176 3.81165 12.5524 1.22706 -2.12124 0.670671
23 3 5.07201 2.14589 16.2529 0.279791 0.60498 -0.143972
24 3 6.70121 1.11452 11.6688 -0.357679 -0.36876 -0.0688107
25 3 2.80441 6.4153 28.2727 -1.52541 -1.12798 -1.08943
26 3 0.230496 0.437798 21.0502 -0.503226 -0.724301 0.340125
27 3 3.79253 5.74934 9.25636 -0.218146 0.0298605 -0.249382
28 3 0.725876 1.54519 23.4247 0.412346 0.50389 0.741551
29 3 1.65483 2.26409 5.12114 -0.636347 -0.907558 0.254875
30 3 1.07291 1.71801 7.65543 -0.407615 0.101429 0.513378
31 3 4.25298 5.92706 18.8821 -0.219032 0.00358199 -1.59882
32 3 3.86889 3.71212 27.934 0.0166676 0.0809526 0.133636
33 3 4.65945 4.17576 11.6468 -0.412139 0.246729 -0.25522
34 3 4.05242 4.23393 20.9223 0.609904 0.0103406 1.03366
35 3 5.30273 6.22826 13.9455 -0.289086 -0.476874 0.537749
36 3 4.5567 6.24293 25.8366 -0.773316 -0.404278 -0.539934
37 3 6.05221 4.67182 17.4042 -1.9996 -1.05926 -0.451135
38 3 5.28385 6.07774 6.9448 0.802871 -0.368635 -0.719546
39 3 4.95037 6.20057 2.97963 0.0666892 -2.13051 0.783859
40 3 2.75613 0.467312 21.1603 0.257862 -0.613066 -0.324802
41 3 5.75964 2.5924 9.21385 0.347007 -0.0776971 0.0889035
42 3 5.52866 4.51617 23.2467 0.309465 -0.0382476 0.191583
43 3 3.1755 1.0621 9.2546 0.213178 -0.04534 0.543447
44 3 2.77337 1.27112 28.0592 0.23273 -0.352845 1.1485
45 3 5.44144 2.24744 21.6972 0.169737 -0.692209 0.720705
46 3 6.51084 3.05583 1.96791 -0.394165 0.120391 1.35237
47 3 6.70153 5.19663 4.78227 0.334167 0.54242 -1.01275
48 3 6.44911 2.55661 19.2688 0.266018 -0.426025 -0.207979
49 3 6.59076 3.88397 6.97594 -0.216046 -0.89665 0.511824
50 3 6.57781 2.87074 14.0624 -1.90371 0.890885 -1.72235
51 3 7.20054 5.85366 11.6799 0.200809 -0.448915 -0.559191
52 3 4.0125 1.41838 25.7499 1.46214 1.56321 -1.81759
53 3 6.45976 3.20386 25.8991 -0.224645 -1.32811 -1.0855
54 3 7.65118 6.10461 18.972 0.121812 -0.0700756 0.321334
55 3 6.7718 5.50948 27.144 0.761465 -1.66306 0.46502
56 3 8.00179 6.22035 7.00076 0.230432 -0.722641 -1.1691
57 3 8.0952 3.99976 9.16823 -0.842888 -0.67449 0.312474
58 3 7.79408 6.11373 1.86712 -0.435996 -0.767814 -1.08583
59 3 5.06274 0.85527 13.9262 0.286276 -1.02947 -1.00565
60 3 8.14921 6.22517 23.2513 -0.77302 -0.0734572 0.4733
61 3 1.83141 1.77527 16.1556 0.129518 -0.471894 0.0603401
62 3 1.2225 3.26119 28.0326 -0.19244 0.958555 -0.463325
63 3 1.34602 3.71312 21.0152 -0.26186 0.165416 -0.121141
64 3 2.43429 2.63483 12.0235 -0.793056 0.306843 -1.41635
65 3 2.78061 5.47108 15.8294 -0.61724 -1.02311 -1.962
66 3 2.05353 4.53155 25.6671 -0.859945 -0.323682 0.825392
67 3 3.25674 5.20188 4.72438 -1.09314 0.226605 -0.382978
68 3 2.56908 5.11416 13.0665 -0.704028 0.638134 0.674261
69 3 2.89398 2.67378 2.17427 0.152715 -0.2307 -0.528666
70 3 3.35012 3.03735 23.3639 1.47424 0.171258 -1.23584
71 3 3.74941 3.09282 6.81576 0.74553 1.71794 0.905789
72 3 3.88342 3.20221 14.0171 0.918534 0.429191 1.08277
73 4 5.619 3.37723 1.72992 0.152962 -0.00423429 -0.168108
74 4 6.19399 3.44527 18.9757 -0.148189 0.469553 -0.503664
75 4 3.90758 5.58142 4.05896 0.254832 -0.0347821 0.211487
76 4 3.12594 4.54312 15.8454 -0.0696933 0.506594 0.269739
77 4 6.50747 0.0984883 0.903993 -1.06054 -0.398685 0.0823187
78 4 1.10022 0.398596 0.506399 2.71359 1.30502 0.405592
79 4 4.67469 3.44528 6.7154 -0.176183 -0.702533 -0.0931197
80 4 1.52786 1.42851 4.59473 0.201109 0.615323 0.541
81 4 5.20351 5.0709 17.8709 0.78176 0.0278052 -0.150899
82 4 3.58342 2.39187 6.18822 -0.17377 -0.654277 -0.650535
83 4 2.67799 1.95013 16.6245 -0.0438512 -0.0815406 -0.188757
84 4 2.4435 0.873033 2.81777 0.48026 2.05598 -0.523622
85 4 5.67196 3.84506 16.903 0.695597 0.944292 0.7653
86 4 3.57621 4.66003 27.9567 -0.0061323 0.143202 0.28444
87 4 5.29314 5.32632 14.3564 0.00422824 0.66924 -0.42563
88 4 7.07841 3.07824 1.18104 0.254204 -0.118007 -1.06947
89 4 3.47015 0.673031 20.5169 -0.0887329 -0.184546 0.145161
90 4 5.71885 5.81342 3.53116 -0.441929 0.306652 -0.00720493
91 4 6.26063 6.50546 13.9117 0.149763 -0.0508581 0.304398
92 4 6.00285 2.4085 20.1462 -0.28304 -0.150215 0.0233434
93 4 7.00786 5.5925 18.4132 0.145529 -0.149361 -0.0818052
94 4 4.94166 0.639032 2.43382 -0.249799 1.1067 0.55352
95 4 7.87386 5.51668 19.7377 -0.0331339 0.238592 -0.401048
96 4 7.3198 2.98106 14.6087 2.00551 0.122215 1.67515
97 4 1.3112 2.01542 6.08169 0.500638 0.454311 -1.33793
98 4 7.112 6.21446 1.11995 0.661886 -0.210799 0.801927
99 4 8.73481 5.9104 6.37992 -0.239743 0.725703 0.841768
100 4 2.26462 3.944 20.7578 0.262276 -0.373413 0.110923
101 4 2.07429 1.04323 15.5152 -0.141722 0.462547 0.0364711
102 4 2.40428 5.46115 14.8563 0.824366 0.326307 1.86952
103 4 1.01015 3.01692 20.3854 0.232558 0.471377 0.244374
104 4 3.6776 4.59203 5.34983 0.29986 -0.203821 0.159061
