ITEM: TIMESTEP
10045
ITEM: NUMBER OF ATOMS
62
ITEM: BOX BOUNDS xy xz yz pp pp pp
-3.2772902378507196e-01 1.1114968230615037e+01 -1.7419075194931100e-01
-1.9248619501204240e+00 7.4513555613175546e+00 -1.5353827183576099e-01
0.0000000000000000e+00 9.3746985947160670e+00 -1.9248619501204240e+00
ITEM: ATOMS id type x y z fx fy fz
1 1 -0.0557684 -0.525445 4.71905 0.142489 -0.030236 -0.308905
2 1 1.44749 2.82758 0.887731 -0.291076 0.490933 -0.121485
3 1 1.39734 6.58479 1.08526 0.152961 -0.45735 0.0555845
4 1 3.81946 -1.03307 8.2852 -0.208989 0.036918 0.023045
5 1 3.8292 2.70407 8.21225 -0.567265 0.158361 0.0277904
6 1 5.32645 2.35098 4.62944 -0.0581683 0.124539 0.612066
7 1 7.04331 2.73056 1.31755 0.219528 0.130005 -0.748708
8 1 6.81608 6.4778 1.0873 0.087987 0.204782 -0.198087
9 1 9.342 -1.01247 8.26995 0.132277 0.342814 0.023744
10 1 9.29442 2.74185 8.27403 -0.0378283 -0.242722 0.492327
11 4 0.907436 4.88617 7.35855 0.216837 -1.16219 0.416064
12 4 1.01464 0.638062 7.22981 0.382973 -0.0382359 1.35484
13 4 1.79839 2.82199 5.23321 0.334372 -0.735452 1.10098
14 4 3.37227 6.50875 4.06135 -0.385674 -0.872398 0.233765
15 4 4.25495 4.40553 2.01535 -0.831072 -0.174674 -0.0526926
16 4 4.22104 1.24708 2.05289 -1.52485 0.363432 0.12402
17 4 6.46755 1.12384 7.24916 -1.01694 -1.05771 1.79221
18 4 6.42339 4.33551 7.35948 0.0244426 0.243943 1.81093
19 4 7.54271 -0.970847 5.31477 -1.017 -0.598649 0.33743
20 4 8.98317 2.78891 4.10256 -0.383426 0.457308 -0.708579
21 4 9.85835 5.01747 2.10817 -1.35692 -0.219201 -1.43288
22 4 9.87286 0.719821 2.03864 -0.245507 0.764636 -1.16601
23 3 10.7328 4.51904 8.21688 -1.10744 0.266016 0.295243
24 3 10.7919 1.0093 8.00707 -0.82157 -0.0796943 0.330534
25 3 0.0700239 1.00724 1.14969 -0.278439 0.0399669 0.09395
26 3 0.0533309 4.63321 1.24645 -0.259309 0.430724 0.985407
27 3 0.874618 -0.99965 6.83996 0.387155 0.204959 -0.491943
28 3 0.889806 3.96728 5.97089 -0.648307 0.387993 -0.114685
29 3 1.14447 1.3257 5.76664 -0.401017 0.678746 -1.69752
30 3 1.52099 2.96434 3.65062 0.0609381 -0.559211 -1.25962
31 3 1.83465 6.37606 3.65329 -0.721782 0.372489 0.0832044
32 3 2.29036 0.916573 8.1497 0.219042 -0.338152 0.174543
33 3 2.20806 4.56847 8.27163 -0.0883728 0.687364 -0.594293
34 3 2.95605 4.72381 1.0948 0.134953 -0.537724 0.319249
35 3 2.88219 1.09589 1.13191 1.29472 -0.357155 0.396564
36 3 3.30609 2.81782 5.67415 1.24575 0.040791 0.303586
37 3 3.92696 -1.00887 5.70944 0.919674 -0.648732 -0.665384
38 3 4.14814 0.5098 3.53596 0.118251 -0.207478 0.433159
39 3 4.25712 5.24977 3.42085 0.116614 0.68468 0.229233
40 3 4.31247 2.82128 2.66362 0.17642 0.283336 -0.940087
41 3 5.03168 0.731349 7.9573 1.63544 0.785085 -0.795288
42 3 5.0947 4.70471 8.24336 1.09063 -0.599213 -0.774419
43 3 5.55935 4.55538 1.09995 0.605384 -0.0171489 0.00982824
44 3 5.57482 0.817771 1.37888 0.831728 0.23938 -0.732933
45 3 6.26477 2.75139 6.83533 0.181531 -0.615283 -0.342442
46 3 6.64708 0.321173 5.78312 -0.80448 1.2384 -0.114035
47 3 6.55558 5.13474 5.97487 0.175026 1.47869 -1.6662
48 3 7.08731 6.19634 3.67774 0.862568 -0.087601 0.534718
49 3 7.45524 2.72452 3.636 -0.317402 0.217671 0.358685
50 3 7.6763 0.840322 8.27998 0.461543 0.373135 -0.264053
51 3 7.76261 4.57757 8.25136 -0.367411 -0.478449 -0.142291
52 3 8.51371 4.74765 1.18789 0.600684 0.191619 0.7062
53 3 8.51218 0.895625 1.19158 0.167519 0.0210112 -0.119787
54 3 9.01562 -0.731872 5.82558 1.00417 -0.682219 -0.012868
55 3 9.2902 2.76765 5.72358 1.48303 0.654207 0.324058
56 3 9.83019 1.53935 3.46442 0.583581 -0.168707 0.444768
57 3 9.72968 4.18424 3.5285 0.126293 0.0564649 0.593227
58 3 9.82784 6.65583 2.64042 0.70037 -2.47923 0.21147
59 2 0.89747 3.59742 3.27425 -0.404286 0.544492 0.422873
60 2 4.67704 6.02644 5.71998 -1.07113 0.397756 0.187079
61 2 7.65373 5.38966 3.56693 -0.469658 0.0848689 -0.439162
62 2 10.2629 3.08635 5.80732 -1.19155 -0.232709 0.0619849
