LAMMPS (29 Sep 2021 - Update 2)
OMP_NUM_THREADS environment is not set. Defaulting to 1 thread. (src/comm.cpp:98)
  using 1 OpenMP thread(s) per MPI task
# Compute elastic constant tensor for a crystal at finite temperature
#
# WARNING: This script attempts to measure small differences in
# statistical averages generated by finite temperature MD simulations.
# This creates many more opportunities for errors to occur, compared
# to the zero temperature version provided in examples/ELASTIC.
# Hence, it is always a good idea to start with the zero temperature
# calculation, before attempting to use this script.
#
# Written by Aidan Thompson (Sandia, athomps@sandia.gov)
#
#  This script uses the following three include files.
#
#   init.mod      (must be modified for different crystal structures)
# 	       	  Define units, MD parameters, deformation parameters,
#		  and initial configuration of the atoms and simulation cell.
#
#
#   potential.mod    (must be modified for different pair styles)
# 		     Define pair style and other attributes
#		     not stored in restart file
#
#
#   displace.mod    (displace.mod should not need to be modified)
# 		    Perform positive and negative box displacements
# 		    in direction ${dir} and size ${up}.
# 		    It uses the resultant changes
#		    in stress to compute one
# 		    row of the elastic stiffness tensor
#
#		    Inputs variables:
#		    	   dir = the Voigt deformation component
#		    		    (1,2,3,4,5,6)
#		    Global constants:
#       	    	   up = the deformation magnitude (strain units)
#       		   cfac = conversion from LAMMPS pressure units to
#               	   output units for elastic constants
#
#
#  To run this on a different system, it should only be necessary to
#  modify the files init.mod and potential.mod. In order to calculate
#  the elastic constants correctly, care must be taken to specify
#  the correct units in init.mod (units, cfac and cunits). It is also
#  important to verify that the MD sampling of stress components
#  is generating accurate statistical averages.
#  One indication of this is that the elastic constants are insensitive
#  to the choice of the variable ${up} in init.mod. Another is to
#  check for finite size effects.
#

# include init.mod

# NOTE: This script can be modified for different atomic structures,
# units, etc. See in.elastic for more info.
#

# Define the finite deformation size. Try several values of this
# variable to verify that results do not depend on it.
variable up equal 2.0e-2

# real units, elastic constants in GPa
units		metal
atom_style atomic
variable cfac equal 1.0e-4
variable cunits string GPa

# Define MD parameters
variable nevery equal 10                  # sampling interval
variable nrepeat equal 10                 # number of samples
variable nfreq equal ${nevery}*${nrepeat} # length of one average
variable nfreq equal 10*${nrepeat} 
variable nfreq equal 10*10 
variable nthermo equal ${nfreq}           # interval for thermo output
variable nthermo equal 100           
variable nequil equal 10*${nthermo}       # length of equilibration run
variable nequil equal 10*100       
variable nrun equal 3*${nthermo}          # length of equilibrated run
variable nrun equal 3*100          
variable temp equal 300                   # temperature of initial sample
variable timestep equal 0.0001             # timestep
variable adiabatic equal 2                # adiabatic (1) or isothermal (2)
variable tdamp equal 0.01                 # time constant for thermostat
variable seed equal 123457                # seed for thermostat

# generate the box and atom positions using a diamond lattice
variable a equal 5.431

boundary	p p p
newton off


box tilt large
read_data tob14_ref_deepmd.data
Reading data file ...
  triclinic box = (0.0000000 0.0000000 0.0000000) to (6.9541015 6.3530143 28.422936) with tilt (2.6303553 0.54033995 1.3928068)
  1 by 1 by 1 MPI processor grid
  reading atoms ...
  104 atoms
  read_data CPU = 0.000 seconds

pair_style	nequip
pair_coeff	* * tob14_l3-deployed.pth Ca Si O H
mass            1 40.079800
mass            2 28.08500
mass            3 15.9994
mass            4 1.00794


change_box all triclinic
Changing box ...
  triclinic box = (0.0000000 0.0000000 0.0000000) to (6.9541015 6.3530143 28.422936) with tilt (2.6303553 0.54033995 1.3928068)

velocity	all create ${temp} 87287
velocity	all create 300 87287

thermo 100
min_style cg
minimize 1.0e-15 1.0e-15 100000 100000 #设置能量最小化
WARNING: Using 'neigh_modify every 1 delay 0 check yes' setting during minimization (src/min.cpp:188)
Neighbor list info ...
  update every 1 steps, delay 0 steps, check yes
  max neighbors/atom: 2000, page size: 100000
  master list distance cutoff = 6
  ghost atom cutoff = 6
  binsize = 3, bins = 4 3 10
  1 neighbor lists, perpetual/occasional/extra = 1 0 0
  (1) pair nequip, perpetual
      attributes: full, newton off
      pair build: full/bin/atomonly
      stencil: full/bin/3d
      bin: standard
Per MPI rank memory allocation (min/avg/max) = 4.220 | 4.220 | 4.220 Mbytes
Step Temp E_pair E_mol TotEng Press 
       0          300   -656.06885            0   -652.07471   -42317.276 
     100          300   -663.50995            0   -659.51581   -30958.354 
     200          300   -663.72491            0   -659.73078   -32542.671 
     236          300   -663.74048            0   -659.74634    -32349.57 
Loop time of 115.97 on 1 procs for 236 steps with 104 atoms

99.8% CPU use with 1 MPI tasks x 1 OpenMP threads

Minimization stats:
  Stopping criterion = energy tolerance
  Energy initial, next-to-last, final = 
      -656.06884765625  -663.740478515625  -663.740478515625
  Force two-norm initial, final = 18.141591 0.078803587
  Force max component initial, final = 3.8508685 0.018591452
  Final line search alpha, max atom move = 1.0000000 0.018591452
  Iterations, force evaluations = 236 476

MPI task timing breakdown:
Section |  min time  |  avg time  |  max time  |%varavg| %total
---------------------------------------------------------------
Pair    | 115.96     | 115.96     | 115.96     |   0.0 | 99.99
Neigh   | 0.0042078  | 0.0042078  | 0.0042078  |   0.0 |  0.00
Comm    | 0.0033045  | 0.0033045  | 0.0033045  |   0.0 |  0.00
Output  | 0.00011373 | 0.00011373 | 0.00011373 |   0.0 |  0.00
Modify  | 0          | 0          | 0          |   0.0 |  0.00
Other   |            | 0.005019   |            |       |  0.00

Nlocal:        104.000 ave         104 max         104 min
Histogram: 1 0 0 0 0 0 0 0 0 0
Nghost:        1154.00 ave        1154 max        1154 min
Histogram: 1 0 0 0 0 0 0 0 0 0
Neighs:         0.00000 ave           0 max           0 min
Histogram: 1 0 0 0 0 0 0 0 0 0
FullNghs:      7556.00 ave        7556 max        7556 min
Histogram: 1 0 0 0 0 0 0 0 0 0

Total # of neighbors = 7556
Ave neighs/atom = 72.653846
Neighbor list builds = 3
Dangerous builds = 0

thermo_style  custom step temp press etotal lx ly lz xy yz xz pxx pyy pzz

#timestep 0.0001

#fix 456 all nve
#fix 567 all langevin 300.0 300.0 0.01 12345

#run 5000

#unfix 456
#unfix 567
fix 123 all npt temp 300 300 0.01 iso 1.0 1.0 0.1
run 10000
Per MPI rank memory allocation (min/avg/max) = 3.111 | 3.111 | 3.111 Mbytes
Step Temp Press TotEng Lx Ly Lz Xy Yz Xz Pxx Pyy Pzz 
     236          300   -32349.571   -659.74634    6.9541015    6.3530143    28.422936    2.6303553    1.3928068   0.54033995   -33754.051   -41994.351   -21300.312 
     300    308.65189   -19938.838   -656.25102    6.8363991    6.2454857     27.94186    2.5858349    1.3692327   0.53119437   -6484.7127   -35503.593   -17828.208 
     400    311.42127    3835.9686   -655.98497     6.776111    6.1904086    27.695449    2.5630312    1.3571579   0.52650993    9176.4476   -1392.2169    3723.6751 
     500    335.07654    185.81215   -656.47471    6.7430024    6.1601619    27.560128    2.5505081    1.3505267   0.52393736   -1356.7638    228.43215     1685.768 
     600    319.16853    4898.9323   -656.76628    6.7812329    6.1950879    27.716384    2.5649685    1.3581837   0.52690791    6196.6366    3230.9423    5269.2179 
     700    278.97954   -3585.9734   -657.66951    6.8096007    6.2210036    27.832329    2.5756985    1.3638654   0.52911211   -1971.0782   -8538.4447   -248.39711 
     800     323.5045    2609.6649   -656.19519    6.7539732    6.1701843    27.604967    2.5546577     1.352724    0.5247898     1724.413   -2986.5066    9091.0883 
     900    295.57436    10686.799   -657.37948    6.7433627     6.160491      27.5616    2.5506443    1.3505988   0.52396536    11946.486    7160.9018    12953.008 
    1000    305.21178   -13410.409   -656.86756    6.8232699    6.2334913    27.888198    2.5808688    1.3666031   0.53017422   -23585.523   -14917.138   -1728.5668 
    1100    289.03196    931.67645   -656.49429    6.7825792    6.1963178    27.721887    2.5654778    1.3584534   0.52701252    973.56374   -12951.773    14773.238 
    1200    312.99448     7158.301   -656.54721    6.7841539    6.1977564    27.728323    2.5660734    1.3587688   0.52713487    6431.7782    743.10743    14300.017 
    1300    318.44278    3448.2188   -656.36603    6.7689044     6.183825    27.665995    2.5603054    1.3557145   0.52594997    6322.4848   -1272.0629    5294.2346 
    1400    286.58296    1457.5812   -656.49168    6.7588019    6.1745957    27.624704    2.5564841    1.3536911     0.525165    3311.7631    3438.5971   -2377.6167 
    1500     271.8702   -9137.4968   -657.37104    6.8251245    6.2351856    27.895778    2.5815703    1.3669746   0.53031832   -16691.673   -17781.465    7060.6473 
    1600    269.39905    15377.232   -657.36011    6.7233985    6.1422524    27.480002     2.543093    1.3466003   0.52241412    17894.082    5748.1765    22489.438 
    1700    302.35819   -50.133832   -656.68394    6.7592844    6.1750364    27.626675    2.5566666    1.3537877   0.52520249    613.54318    3859.3405   -4623.2852 
    1800    307.39225    2953.2436   -656.60007    6.7994204    6.2117033     27.79072    2.5718479    1.3618264   0.52832109    5924.2634    4508.0238   -1572.5565 
    1900    346.77521    119.66743   -656.79381    6.7492476    6.1658672    27.585653    2.5528702    1.3517775   0.52442262    11460.057   -6260.7004   -4840.3547 
    2000    288.60242    1172.8808   -657.03584    6.7705726     6.185349    27.672813    2.5609363    1.3560486   0.52607959     5593.687   -11638.089    9563.0448 
    2100    296.42681   -551.22585   -656.98684    6.7972764    6.2097446    27.781957    2.5710369     1.361397    0.5281545    5854.9346   -10404.419    2895.8071 
    2200    318.44223   -5377.3237   -656.89723    6.7983463     6.210722     27.78633    2.5714416    1.3616113   0.52823763   -3797.5678   -17313.296     4978.893 
    2300    293.01972    8842.1932   -656.61241    6.7686604    6.1836021    27.664997    2.5602131    1.3556656   0.52593101    16070.012   -2577.0903    13033.658 
    2400    307.11501   -11987.376   -657.29053    6.8373287    6.2463349     27.94566    2.5861865    1.3694189    0.5312666   -11136.266   -20768.864   -4056.9974 
    2500    258.49605     5588.064   -657.38278    6.7775424    6.1917163      27.7013    2.5635726    1.3574446   0.52662115    2009.8098    277.04393    14477.338 
    2600    355.54889    4304.4128    -656.3866    6.7725655    6.1871696    27.680958    2.5616902    1.3564478   0.52623444    4553.2432   -4111.3634    12471.359 
    2700    316.69239   -4483.0599   -657.02312    6.8038181    6.2157208    27.808694    2.5735113    1.3627072    0.5286628    931.31966   -11819.398   -2561.1015 
    2800    299.86444    3709.7695   -657.58219    6.7777944    6.1919465     27.70233    2.5636679     1.357495   0.52664073    2389.7409   -169.95651    8909.5241 
    2900    374.35825    698.48244   -656.31201    6.7701793    6.1849896    27.671205    2.5607876    1.3559698   0.52604903    2864.6372   -9200.9768    8431.7869 
    3000    283.27748   -8678.6204   -656.98674     6.819799    6.2303205    27.874012     2.579556     1.365908   0.52990453   -1236.0996   -19527.416   -5272.3457 
    3100     275.6553    9050.1479   -656.46987    6.7666069    6.1817261    27.656604    2.5594363    1.3552543   0.52577145    9692.7105   -117.64304    17575.376 
    3200    320.64674   -11255.211   -656.77175    6.8311722    6.2407106    27.920497    2.5838579    1.3681858   0.53078824   -19040.568   -8546.7154   -6178.3504 
    3300    265.43098    14143.201   -657.37651    6.7611312    6.1767236    27.634224    2.5573652    1.3541576   0.52534599    10218.225    15527.623    16683.754 
    3400    317.12271    6231.3997   -655.61926    6.7902401    6.2033164    27.753198    2.5683755    1.3599877   0.52760777    2677.4887    8206.5622    7810.1482 
    3500    282.74231   -12676.566    -656.6008    6.8146814    6.2256452    27.853095    2.5776203     1.364883   0.52950689   -16100.112   -9117.8487   -12811.739 
    3600    336.89412     1997.426    -656.3816    6.7858005    6.1992607    27.735053    2.5666962    1.3590985   0.52726282   -6752.8076   -1299.4817    14044.567 
    3700    296.77976     1228.686   -657.45865    6.7680489    6.1830434    27.662498    2.5599818    1.3555431    0.5258835   -3984.7262   -4558.3136    12229.098 
    3800    279.62377    2115.4182   -657.92497    6.7803565    6.1942872    27.712802    2.5646371    1.3580082   0.52683981    7989.3678   -3687.0404    2043.9273 
    3900    310.85461    3950.6233   -657.29726    6.7558292      6.17188    27.612553    2.5553597    1.3530957   0.52493402    11189.077     1068.709   -405.91627 
    4000    283.83186    -307.5779   -656.41381    6.7980818    6.2104804    27.785249    2.5713416    1.3615583   0.52821708   -498.87836   -14637.556      14213.7 
    4100      295.293   -2922.5262   -656.70757    6.7780062    6.1921401    27.703196    2.5637481    1.3575375   0.52665719    -6379.618   -5251.6548    2863.6943 
    4200    305.56022    3337.5016   -657.14814    6.7514079    6.1678408    27.594482    2.5536874    1.3522102   0.52459048    3668.9083   -5789.1824    12132.779 
    4300    287.14422   -2064.1305   -657.03676    6.8000608    6.2122883    27.793338    2.5720901    1.3619547   0.52837085    -6885.146   -4048.4147    4741.1692 
    4400    297.02378   -1979.7392   -657.05611    6.7917201    6.2046686    27.759247    2.5689353    1.3602841   0.52772277   -513.38114   -6844.6612    1418.8249 
    4500      284.998    1731.9576   -657.03189    6.8066686    6.2183249    27.820345    2.5745895    1.3632781   0.52888428   -122.68141    -5522.544    10841.098 
    4600    285.81994    312.03301   -657.17927    6.7855656    6.1990461    27.734093    2.5666074    1.3590515   0.52724456    2435.2401   -9731.7517    8232.6106 
    4700     322.9816   -3799.7954   -656.50726     6.773905    6.1883933    27.686433    2.5621968     1.356716   0.52633852   -4048.7408   -2182.3621   -5168.2835 
    4800      310.088    6506.1331   -656.18362    6.7556608    6.1717261    27.611865     2.555296     1.353062   0.52492093    13725.556    -1755.124    7547.9675 
    4900    275.02539    7229.4636   -656.56475    6.7829387    6.1966461    27.723356    2.5656137    1.3585253   0.52704045   -1000.1324    5978.4078    16710.116 
    5000    318.19865   -842.97229   -656.84481    6.7969678    6.2094626    27.780696    2.5709202    1.3613352   0.52813052    2673.6832   -8370.2183    3167.6183 
    5100    346.11015    12771.816   -656.05016    6.7600059    6.1756956    27.629624    2.5569395    1.3539322   0.52525855    8497.3613    11118.182    18699.904 
    5200    343.68971   -8528.4483   -656.44543    6.8083233    6.2198366    27.827108    2.5752154    1.3636095   0.52901285   -13942.129   -7849.5732   -3793.6425 
    5300    332.83962    2529.8887   -655.89402    6.7652378    6.1804753    27.651008    2.5589185    1.3549801   0.52566507     4710.773    3297.0223   -418.12919 
    5400    302.56251    391.32716   -656.96924    6.7480186    6.1647445     27.58063    2.5524054    1.3515314   0.52432713    7180.3651   -10452.567    4446.1837 
    5500    325.03933    -7049.321   -656.59711    6.8067696    6.2184172    27.820758    2.5746277    1.3632983   0.52889213   -7627.3541    -9311.817    -4208.792 
    5600    299.59952    8218.0386   -656.90646    6.7369984    6.1546768    27.535588    2.5482371    1.3493242   0.52347085    11992.317    10084.001    2577.7974 
    5700     299.3445   -3349.4502    -657.0799    6.7678478    6.1828597    27.661676    2.5599057    1.3555029   0.52586787    3276.1012   -12483.426   -841.02618 
    5800    323.56491   -11356.122   -656.50658    6.7959273    6.2085121    27.776443    2.5705266    1.3611268   0.52804968   -10993.086   -15743.639    -7331.641 
    5900    339.60433    8171.6669   -655.22888    6.7469398    6.1637589    27.576221    2.5519974    1.3513153    0.5242433    12578.035    5645.7872    6291.1782 
    6000    317.77118   -6386.0534   -657.10324    6.7953348    6.2079708    27.774021    2.5703025    1.3610081   0.52800363   -9567.9574   -5684.3497    -3905.853 
    6100    302.07363    3188.4759    -656.8853    6.7723088    6.1869351    27.679909     2.561593    1.3563963    0.5262145    2281.3061    8712.9351   -1428.8133 
    6200    305.25657    8372.1742   -657.02108    6.7688121    6.1837407    27.665617    2.5602704     1.355696    0.5259428    14896.272    2499.7856     7720.465 
    6300    287.32051    4481.5754   -657.30791    6.7731431    6.1876973    27.683319    2.5619086    1.3565634   0.52627932    1796.6443    7554.4136    4093.6683 
    6400    271.69857    8622.8935   -657.84665    6.7907523    6.2037844    27.755292    2.5685692    1.3600903   0.52764757     8133.024     5815.432    11920.225 
    6500    284.60572   -7402.9627   -657.20801    6.7802061    6.1941498    27.712187    2.5645802    1.3579781   0.52682812   -7152.4308   -5821.5168   -9234.9406 
    6600     296.2403    12254.521   -657.39839    6.7474382    6.1642142    27.578258    2.5521859    1.3514151   0.52428203     5628.023    16832.368    14303.174 
    6700    322.06069   -2837.0114   -656.56792    6.8409491    6.2496424    27.960457    2.5875559     1.370144   0.53154791    -2839.503   -4980.2175   -691.31359 
    6800      346.594    5625.8383   -656.80739    6.7811233    6.1949877    27.715936    2.5649271    1.3581618   0.52689939    7811.0299    5901.8315    3164.6534 
    6900     319.4412   -959.34349   -656.18074    6.7990978    6.2114086    27.789402    2.5717259    1.3617618   0.52829603   -3192.3458   -9091.9987     9406.314 
    7000    328.36064   -5219.0293   -656.61875    6.8215966    6.2319627    27.881359    2.5802359     1.366268    0.5300442   -17932.366   -8987.5906    11262.868 
    7100    314.68552    6206.3791   -656.77384    6.7811647    6.1950256    27.716105    2.5649428    1.3581701   0.52690261    3827.6805    776.66988    14014.787 
    7200    286.47726    355.46957   -657.83672    6.7579035    6.1737749    27.621032    2.5561443    1.3535112   0.52509519   -4008.5337   -5455.0881    10530.031 
    7300    285.55791   -4428.8716   -656.91207    6.7917278    6.2046756    27.759279    2.5689382    1.3602857   0.52772337   -5810.0174   -11208.103    3731.5053 
    7400     245.6208    5032.4173    -657.4591    6.7694989    6.1843681    27.668424    2.5605302    1.3558336   0.52599617    9654.5809    1982.3471    3460.3238 
    7500    294.03314   -7929.9318   -657.28129    6.7868258    6.2001973    27.739243     2.567084    1.3593039   0.52734248   -10151.846   -11415.572   -2222.3779 
    7600    269.14469     2527.751   -657.54783    6.7797363    6.1937206    27.710267    2.5644024     1.357884   0.52679162    576.12159   -6767.8372    13774.969 
    7700    288.76766   -4185.5479   -657.38411    6.8003976     6.212596    27.794714    2.5722175    1.3620221   0.52839702    -5069.935   -8825.9315    1339.2228 
    7800    270.66301    1557.8033   -657.79049    6.7837815    6.1974162    27.726801    2.5659325    1.3586942   0.52710594   -3043.6948    3000.3866    4716.7179 
    7900     323.0886    52.692549   -656.72904    6.7853635    6.1988614    27.733267    2.5665309     1.359011   0.52722886   -7538.7267   -3474.2417    11171.046 
    8000     270.4642   -998.82447   -657.97429    6.7910662    6.2040712    27.756575    2.5686879    1.3601532   0.52767196    2042.1176   -13912.392     8873.801 
    8100    288.28743   -5088.8504   -657.35339     6.798652    6.2110013     27.78758    2.5715572    1.3616725   0.52826139   -10695.137   -4011.8117   -559.60295 
    8200    298.00921    3541.2996   -656.65322    6.7928361    6.2056881    27.763809    2.5693574    1.3605077   0.52780949   -2632.3139    2764.1136    10492.099 
    8300    317.76002   -768.87544   -656.81329    6.7927428    6.2056029    27.763427    2.5693221     1.360489   0.52780224    628.67064   -11320.441     8385.144 
    8400     358.2602   -3418.5552   -656.47422     6.798855    6.2111867    27.788409     2.571634    1.3617132   0.52827716    -10391.16   -2580.3663     2715.861 
    8500    257.73049    14423.173   -658.06967    6.7653655    6.1805919     27.65153    2.5589668    1.3550057   0.52567499    4651.5198    10865.946    27752.054 
    8600    294.70635   -15275.776   -656.67546    6.8287535     6.238501    27.910611     2.582943    1.3677014    0.5306003   -20243.173   -28117.423    2533.2688 
    8700    293.46864    5754.3027    -656.8322    6.7953752    6.2080077    27.774187    2.5703178    1.3610162   0.52800678    6612.1206    13237.379   -2586.5915 
    8800    287.45932   -1740.2937   -656.98948    6.8025516    6.2145638    27.803518    2.5730322    1.3624535   0.52856439   -3724.3667   -1349.9444   -146.57005 
    8900      307.497   -2144.3536   -656.92979     6.791865    6.2048009     27.75984    2.5689901    1.3603132   0.52773403   -8736.9609   -3853.3505    6157.2507 
    9000    252.77174    4949.9383   -657.51984    6.7631767    6.1785923    27.642584    2.5581389    1.3545673   0.52550492     4286.789   -9893.2962    20456.322 
    9100     302.6113   -2994.4734   -656.32681    6.7962376    6.2087956    27.777711     2.570644    1.3611889   0.52807379   -5360.1287   -4661.4658    1038.1743 
    9200    258.58578   -6435.3388   -657.38067    6.8141555    6.2251647    27.850946    2.5774214    1.3647776   0.52946602   -9274.1562   -4415.2385   -5616.6217 
    9300    278.52068    10120.361   -657.04543    6.7559563     6.171996    27.613073    2.5554078    1.3531212   0.52494389    3697.9336    394.39145    26268.759 
    9400    297.22462   -5959.7093   -657.08133    6.8075196    6.2191024    27.823823    2.5749114    1.3634486   0.52895041   -5527.8188   -13533.617    1182.3081 
    9500    332.09392    2225.6715   -657.00289    6.7858169    6.1992756     27.73512    2.5667024    1.3591018   0.52726409    9820.4073   -2811.5672   -331.82578 
    9600    292.82711   -6266.9174   -657.00749    6.8058593    6.2175856    27.817037    2.5742834     1.363116    0.5288214   -3403.1757    -7513.892   -7883.6845 
    9700    310.06703   -11317.136   -657.03901    6.7843145    6.1979031    27.728979    2.5661342    1.3588009   0.52714735   -14028.781   -12890.978   -7031.6501 
    9800    300.52242    4423.2538   -655.96741    6.7668359    6.1819353     27.65754     2.559523    1.3553002   0.52578925    956.37141    6358.0783    5955.3117 
    9900    304.58757   -260.36324   -657.54036    6.7814463    6.1952828    27.717256    2.5650493    1.3582264   0.52692449   -2606.3112    3360.0686   -1534.8471 
   10000    275.60535   -3827.5224   -657.50008     6.802217    6.2142581     27.80215    2.5729057    1.3623865   0.52853839   -789.39289   -10238.227   -454.94719 
   10100    287.24946    3851.7832   -657.41305    6.7600986    6.1757803    27.630003    2.5569746    1.3539508   0.52526575    2344.5459    1529.1729    7681.6309 
   10200    327.46135   -2155.6899   -657.17162    6.7917398    6.2046865    27.759328    2.5689427    1.3602881    0.5277243   -136.18773    -4878.466    -1452.416 
   10236     319.5406    4445.6344   -657.25211     6.763895    6.1792486     27.64552    2.5584106    1.3547112   0.52556074    1638.8061    4979.7433    6718.3538 
Loop time of 2465.07 on 1 procs for 10000 steps with 104 atoms

Performance: 0.350 ns/day, 68.474 hours/ns, 4.057 timesteps/s
100.0% CPU use with 1 MPI tasks x 1 OpenMP threads

MPI task timing breakdown:
Section |  min time  |  avg time  |  max time  |%varavg| %total
---------------------------------------------------------------
Pair    | 2464.6     | 2464.6     | 2464.6     |   0.0 | 99.98
Neigh   | 0.16589    | 0.16589    | 0.16589    |   0.0 |  0.01
Comm    | 0.069607   | 0.069607   | 0.069607   |   0.0 |  0.00
Output  | 0.0064306  | 0.0064306  | 0.0064306  |   0.0 |  0.00
Modify  | 0.17105    | 0.17105    | 0.17105    |   0.0 |  0.01
Other   |            | 0.03405    |            |       |  0.00

Nlocal:        104.000 ave         104 max         104 min
Histogram: 1 0 0 0 0 0 0 0 0 0
Nghost:        1213.00 ave        1213 max        1213 min
Histogram: 1 0 0 0 0 0 0 0 0 0
Neighs:         0.00000 ave           0 max           0 min
Histogram: 1 0 0 0 0 0 0 0 0 0
FullNghs:      8094.00 ave        8094 max        8094 min
Histogram: 1 0 0 0 0 0 0 0 0 0

Total # of neighbors = 8094
Ave neighs/atom = 77.826923
Neighbor list builds = 189
Dangerous builds = 0

unfix 123

# Compute initial state

variable thermostat equal 0
include potential.mod
# NOTE: This script can be modified for different pair styles
# See in.elastic for more info.

# we must undefine any fix ave/* fix before using reset_timestep
if "$(is_defined(fix,avp))" then "unfix avp"
reset_timestep 0

newton off

# Choose potential
# pair_style	sw
# pair_coeff * * Si.sw Si
pair_style	nequip
pair_coeff	* * tob14_l3-deployed.pth Ca Si O H

atom_modify sort 0 0.0
#kspace_style	ewald 1.0e-6# Setup neighbor style

neighbor 2.0 bin
neigh_modify once no every 1 delay 0 check yes



# Setup output

fix avp all ave/time  ${nevery} ${nrepeat} ${nfreq} c_thermo_press mode vector
fix avp all ave/time  10 ${nrepeat} ${nfreq} c_thermo_press mode vector
fix avp all ave/time  10 10 ${nfreq} c_thermo_press mode vector
fix avp all ave/time  10 10 100 c_thermo_press mode vector

#min_style cg
#minimize 1.0e-15 1.0e-15 100000 100000 #设置能量最小化

thermo		${nthermo}
thermo		100
thermo_style custom step temp pe press f_avp[1] f_avp[2] f_avp[3] f_avp[4] f_avp[5] f_avp[6]
thermo_modify norm no

# Setup MD

timestep ${timestep}
timestep 0.0001
fix 4 all nve
if "${thermostat} == 1" then    "fix 5 all langevin ${temp} ${temp} ${tdamp} ${seed}"


run ${nequil}
run 1000
Per MPI rank memory allocation (min/avg/max) = 3.096 | 3.096 | 3.096 Mbytes
Step Temp PotEng Press f_avp[1] f_avp[2] f_avp[3] f_avp[4] f_avp[5] f_avp[6] 
       0     319.5406   -661.50641    4445.6638            0            0            0            0            0            0 
     100    283.63794   -661.02863    6734.4211    3609.1144    5404.8459     16552.45      2906.51    1717.0852   -5036.8924 
     200    306.41026   -661.33179    4775.4778    6680.9164    4472.4365    10741.685     3990.824    4834.2704   -7711.7613 
     300    345.55852   -661.85309    2995.5531    526.22822    3350.8488    5841.4379    6372.9628    8710.7561    -5274.989 
     400    315.92471   -661.45831    5899.7964    2344.8006    6410.4934     10179.48    4502.3079    3599.8833     1510.196 
     500    310.66512   -661.38849    7643.1945    7788.3462    8695.0993    9811.4192      9504.15    1533.8221    -4957.873 
     600    297.01706   -661.20667    7227.3672     12854.73    10618.528    7378.1163    9692.0564    9358.8249   -6807.6981 
     700    307.25552    -661.3429    1359.4382    8488.7307     5831.626    5175.7418     10650.48    7810.9171   -5518.5932 
     800    312.37897   -661.41095   -4148.6723    7332.8162    4397.7583   -4765.9566    9746.7118    820.22645   -2903.6888 
     900    293.15349   -661.15515   -2176.3829    2757.4201    1433.3371    -1443.741    10010.632    899.26653   -4465.6462 
    1000    310.81605    -661.3902    8596.5475    6349.6312    1674.1208    9726.9581    11738.045    6664.9823   -2911.3167 
Loop time of 251.588 on 1 procs for 1000 steps with 104 atoms

Performance: 0.034 ns/day, 698.854 hours/ns, 3.975 timesteps/s
100.0% CPU use with 1 MPI tasks x 1 OpenMP threads

MPI task timing breakdown:
Section |  min time  |  avg time  |  max time  |%varavg| %total
---------------------------------------------------------------
Pair    | 251.57     | 251.57     | 251.57     |   0.0 | 99.99
Neigh   | 0.001178   | 0.001178   | 0.001178   |   0.0 |  0.00
Comm    | 0.0063357  | 0.0063357  | 0.0063357  |   0.0 |  0.00
Output  | 0.00066686 | 0.00066686 | 0.00066686 |   0.0 |  0.00
Modify  | 0.0056729  | 0.0056729  | 0.0056729  |   0.0 |  0.00
Other   |            | 0.003369   |            |       |  0.00

Nlocal:        104.000 ave         104 max         104 min
Histogram: 1 0 0 0 0 0 0 0 0 0
Nghost:        1229.00 ave        1229 max        1229 min
Histogram: 1 0 0 0 0 0 0 0 0 0
Neighs:         0.00000 ave           0 max           0 min
Histogram: 1 0 0 0 0 0 0 0 0 0
FullNghs:      8226.00 ave        8226 max        8226 min
Histogram: 1 0 0 0 0 0 0 0 0 0

Total # of neighbors = 8226
Ave neighs/atom = 79.096154
Neighbor list builds = 1
Dangerous builds = 0

if "${adiabatic} == 1" then "variable thermostat equal 0" else "variable thermostat equal 1"
variable thermostat equal 1

print ${thermostat}
print 1
1

include potential.mod
# NOTE: This script can be modified for different pair styles
# See in.elastic for more info.

# we must undefine any fix ave/* fix before using reset_timestep
if "$(is_defined(fix,avp))" then "unfix avp"
unfix avp
reset_timestep 0

newton off

# Choose potential
# pair_style	sw
# pair_coeff * * Si.sw Si
pair_style	nequip
pair_coeff	* * tob14_l3-deployed.pth Ca Si O H

atom_modify sort 0 0.0
#kspace_style	ewald 1.0e-6# Setup neighbor style

neighbor 2.0 bin
neigh_modify once no every 1 delay 0 check yes



# Setup output

fix avp all ave/time  ${nevery} ${nrepeat} ${nfreq} c_thermo_press mode vector
fix avp all ave/time  10 ${nrepeat} ${nfreq} c_thermo_press mode vector
fix avp all ave/time  10 10 ${nfreq} c_thermo_press mode vector
fix avp all ave/time  10 10 100 c_thermo_press mode vector

#min_style cg
#minimize 1.0e-15 1.0e-15 100000 100000 #设置能量最小化

thermo		${nthermo}
thermo		100
thermo_style custom step temp pe press f_avp[1] f_avp[2] f_avp[3] f_avp[4] f_avp[5] f_avp[6]
WARNING: New thermo_style command, previous thermo_modify settings will be lost (src/output.cpp:689)
thermo_modify norm no

# Setup MD

timestep ${timestep}
timestep 0.0001
fix 4 all nve
if "${thermostat} == 1" then    "fix 5 all langevin ${temp} ${temp} ${tdamp} ${seed}"
fix 5 all langevin ${temp} ${temp} ${tdamp} ${seed}
fix 5 all langevin 300 ${temp} ${tdamp} ${seed}
fix 5 all langevin 300 300 ${tdamp} ${seed}
fix 5 all langevin 300 300 0.01 ${seed}
fix 5 all langevin 300 300 0.01 123457


run ${nrun}
run 300
Per MPI rank memory allocation (min/avg/max) = 3.096 | 3.096 | 3.096 Mbytes
Step Temp PotEng Press f_avp[1] f_avp[2] f_avp[3] f_avp[4] f_avp[5] f_avp[6] 
       0    310.81605    -661.3902    8596.5427            0            0            0            0            0            0 
     100    286.77951   -661.05389    10747.555    13054.133    4835.7536    8028.4229    11570.978    4498.5536   -6365.0321 
     200    300.99658   -660.93481    9500.5919    13280.748    6541.1087    6112.5099    6679.2369    5292.8698   -6613.2027 
     300    276.56993   -661.17468    8534.4249    6829.7565    2806.4492    10748.183    6090.3253    6977.0612   -3116.8444 
Loop time of 79.3085 on 1 procs for 300 steps with 104 atoms

Performance: 0.033 ns/day, 734.338 hours/ns, 3.783 timesteps/s
99.9% CPU use with 1 MPI tasks x 1 OpenMP threads

MPI task timing breakdown:
Section |  min time  |  avg time  |  max time  |%varavg| %total
---------------------------------------------------------------
Pair    | 79.3       | 79.3       | 79.3       |   0.0 | 99.99
Neigh   | 0          | 0          | 0          |   0.0 |  0.00
Comm    | 0.0017931  | 0.0017931  | 0.0017931  |   0.0 |  0.00
Output  | 0.00022221 | 0.00022221 | 0.00022221 |   0.0 |  0.00
Modify  | 0.0052938  | 0.0052938  | 0.0052938  |   0.0 |  0.01
Other   |            | 0.0009725  |            |       |  0.00

Nlocal:        104.000 ave         104 max         104 min
Histogram: 1 0 0 0 0 0 0 0 0 0
Nghost:        1216.00 ave        1216 max        1216 min
Histogram: 1 0 0 0 0 0 0 0 0 0
Neighs:         0.00000 ave           0 max           0 min
Histogram: 1 0 0 0 0 0 0 0 0 0
FullNghs:      8202.00 ave        8202 max        8202 min
Histogram: 1 0 0 0 0 0 0 0 0 0

Total # of neighbors = 8202
Ave neighs/atom = 78.865385
Neighbor list builds = 0
Dangerous builds = 0

variable pxx0 equal f_avp[1]
variable pyy0 equal f_avp[2]
variable pzz0 equal f_avp[3]
variable pxy0 equal f_avp[4]
variable pxz0 equal f_avp[5]
variable pyz0 equal f_avp[6]

variable tmp equal lx
variable lx0 equal ${tmp}
variable lx0 equal 6.76389504608471
variable tmp equal ly
variable ly0 equal ${tmp}
variable ly0 equal 6.17924860419115
variable tmp equal lz
variable lz0 equal ${tmp}
variable lz0 equal 27.645520259248

# These formulas define the derivatives w.r.t. strain components
# Constants uses $, variables use v_
variable d1 equal -(v_pxx1-${pxx0})/(v_delta/v_len0)*${cfac}
variable d1 equal -(v_pxx1-6829.75652279831)/(v_delta/v_len0)*${cfac}
variable d1 equal -(v_pxx1-6829.75652279831)/(v_delta/v_len0)*0.0001
variable d2 equal -(v_pyy1-${pyy0})/(v_delta/v_len0)*${cfac}
variable d2 equal -(v_pyy1-2806.44918226103)/(v_delta/v_len0)*${cfac}
variable d2 equal -(v_pyy1-2806.44918226103)/(v_delta/v_len0)*0.0001
variable d3 equal -(v_pzz1-${pzz0})/(v_delta/v_len0)*${cfac}
variable d3 equal -(v_pzz1-10748.1833635702)/(v_delta/v_len0)*${cfac}
variable d3 equal -(v_pzz1-10748.1833635702)/(v_delta/v_len0)*0.0001
variable d4 equal -(v_pyz1-${pyz0})/(v_delta/v_len0)*${cfac}
variable d4 equal -(v_pyz1--3116.84444132603)/(v_delta/v_len0)*${cfac}
variable d4 equal -(v_pyz1--3116.84444132603)/(v_delta/v_len0)*0.0001
variable d5 equal -(v_pxz1-${pxz0})/(v_delta/v_len0)*${cfac}
variable d5 equal -(v_pxz1-6977.06121040075)/(v_delta/v_len0)*${cfac}
variable d5 equal -(v_pxz1-6977.06121040075)/(v_delta/v_len0)*0.0001
variable d6 equal -(v_pxy1-${pxy0})/(v_delta/v_len0)*${cfac}
variable d6 equal -(v_pxy1-6090.32527399548)/(v_delta/v_len0)*${cfac}
variable d6 equal -(v_pxy1-6090.32527399548)/(v_delta/v_len0)*0.0001

# Write restart
write_restart restart.equil
System init for write_restart ...

# uxx Perturbation

variable dir equal 1
include displace.mod
# NOTE: This script should not need to be
# modified. See in.elastic for more info.
#
# Find which reference length to use

if "${dir} == 1" then    "variable len0 equal ${lx0}"
variable len0 equal ${lx0}
variable len0 equal 6.76389504608471
if "${dir} == 2" then    "variable len0 equal ${ly0}"
if "${dir} == 3" then    "variable len0 equal ${lz0}"
if "${dir} == 4" then    "variable len0 equal ${lz0}"
if "${dir} == 5" then    "variable len0 equal ${lz0}"
if "${dir} == 6" then    "variable len0 equal ${ly0}"

# Reset box and simulation parameters

clear
OMP_NUM_THREADS environment is not set. Defaulting to 1 thread. (src/comm.cpp:98)
  using 1 OpenMP thread(s) per MPI task
box tilt large
read_restart restart.equil
Reading restart file ...
  restart file = 29 Sep 2021, LAMMPS = 29 Sep 2021
  restoring atom style atomic from restart
  triclinic box = (0.095103223 0.086882847 0.38870770) to (6.8589983 6.2661315 28.034228) with tilt (2.5584106 0.52556074 1.3547112)
  1 by 1 by 1 MPI processor grid
  pair style nequip stores no restart info
  104 atoms
  read_restart CPU = 0.000 seconds
include potential.mod
# NOTE: This script can be modified for different pair styles
# See in.elastic for more info.

# we must undefine any fix ave/* fix before using reset_timestep
if "$(is_defined(fix,avp))" then "unfix avp"
reset_timestep 0

newton off

# Choose potential
# pair_style	sw
# pair_coeff * * Si.sw Si
pair_style	nequip
pair_coeff	* * tob14_l3-deployed.pth Ca Si O H

atom_modify sort 0 0.0
#kspace_style	ewald 1.0e-6# Setup neighbor style

neighbor 2.0 bin
neigh_modify once no every 1 delay 0 check yes



# Setup output

fix avp all ave/time  ${nevery} ${nrepeat} ${nfreq} c_thermo_press mode vector
fix avp all ave/time  10 ${nrepeat} ${nfreq} c_thermo_press mode vector
fix avp all ave/time  10 10 ${nfreq} c_thermo_press mode vector
fix avp all ave/time  10 10 100 c_thermo_press mode vector

#min_style cg
#minimize 1.0e-15 1.0e-15 100000 100000 #设置能量最小化

thermo		${nthermo}
thermo		100
thermo_style custom step temp pe press f_avp[1] f_avp[2] f_avp[3] f_avp[4] f_avp[5] f_avp[6]
thermo_modify norm no

# Setup MD

timestep ${timestep}
timestep 0.0001
fix 4 all nve
if "${thermostat} == 1" then    "fix 5 all langevin ${temp} ${temp} ${tdamp} ${seed}"
fix 5 all langevin ${temp} ${temp} ${tdamp} ${seed}
fix 5 all langevin 300 ${temp} ${tdamp} ${seed}
fix 5 all langevin 300 300 ${tdamp} ${seed}
fix 5 all langevin 300 300 0.01 ${seed}
fix 5 all langevin 300 300 0.01 123457



# Negative deformation

variable delta equal -${up}*${len0}
variable delta equal -0.02*${len0}
variable delta equal -0.02*6.76389504608471
variable deltaxy equal -${up}*xy
variable deltaxy equal -0.02*xy
variable deltaxz equal -${up}*xz
variable deltaxz equal -0.02*xz
variable deltayz equal -${up}*yz
variable deltayz equal -0.02*yz
if "${dir} == 1" then    "change_box all x delta 0 ${delta} xy delta ${deltaxy} xz delta ${deltaxz} remap units box"
change_box all x delta 0 ${delta} xy delta ${deltaxy} xz delta ${deltaxz} remap units box
change_box all x delta 0 -0.135277900921694 xy delta ${deltaxy} xz delta ${deltaxz} remap units box
change_box all x delta 0 -0.135277900921694 xy delta -0.051168211655824 xz delta ${deltaxz} remap units box
change_box all x delta 0 -0.135277900921694 xy delta -0.051168211655824 xz delta -0.0105112148047561 remap units box
Changing box ...
  triclinic box = (0.095103223 0.086882847 0.38870770) to (6.7237204 6.2661315 28.034228) with tilt (2.5584106 0.52556074 1.3547112)
  triclinic box = (0.095103223 0.086882847 0.38870770) to (6.7237204 6.2661315 28.034228) with tilt (2.5072424 0.52556074 1.3547112)
  triclinic box = (0.095103223 0.086882847 0.38870770) to (6.7237204 6.2661315 28.034228) with tilt (2.5072424 0.51504953 1.3547112)
if "${dir} == 2" then    "change_box all y delta 0 ${delta} yz delta ${deltayz} remap units box"
if "${dir} == 3" then    "change_box all z delta 0 ${delta} remap units box"
if "${dir} == 4" then    "change_box all yz delta ${delta} remap units box"
if "${dir} == 5" then    "change_box all xz delta ${delta} remap units box"
if "${dir} == 6" then    "change_box all xy delta ${delta} remap units box"

# Run MD

run ${nequil}
run 1000
Neighbor list info ...
  update every 1 steps, delay 0 steps, check yes
  max neighbors/atom: 2000, page size: 100000
  master list distance cutoff = 6
  ghost atom cutoff = 6
  binsize = 3, bins = 4 3 10
  1 neighbor lists, perpetual/occasional/extra = 1 0 0
  (1) pair nequip, perpetual
      attributes: full, newton off
      pair build: full/bin/atomonly
      stencil: full/bin/3d
      bin: standard
Per MPI rank memory allocation (min/avg/max) = 2.973 | 2.973 | 2.973 Mbytes
Step Temp PotEng Press f_avp[1] f_avp[2] f_avp[3] f_avp[4] f_avp[5] f_avp[6] 
       0    276.56993   -660.72809    35216.729            0            0            0            0            0            0 
     100    261.75102    -660.8103    28413.099    39130.666    18704.189     20750.43    9899.7559    5849.6786   -6178.8164 
     200    262.28424   -660.29028    22562.683    32851.815    15842.846    15062.681    5723.4553    7355.8165   -7238.6071 
     300    246.39624     -660.026    23189.527    32846.483    8359.1698    19997.616    6769.1003    6071.2117   -5773.3981 
     400    332.16096   -659.97241    27386.243    32801.957    19016.882    24781.852    11076.672    3922.8547   -7779.6769 
     500    293.06173   -660.13605    24827.308    32137.071    23771.874    19926.025    8342.5774    7210.9352   -6652.0845 
     600    302.16295   -660.20319    24648.508    29910.858    12637.204    24417.499    8083.3774    11138.652    -4357.172 
     700    329.27259   -660.46826    27413.017    38601.311    19036.052    29669.205     8247.102    3907.2776   -5122.8905 
     800    309.62765   -660.65912    22312.788    28503.718    14972.466    28340.176    8459.3151    3421.7106   -6788.6768 
     900    332.94572   -660.53857    17220.361    18703.279    9065.9398    17931.455    4509.0562    10247.057   -2692.9481 
    1000    320.07553   -660.62714    27098.839    22623.794    6518.0282    24021.854    3734.7129    7287.6602    3058.2033 
Loop time of 256.783 on 1 procs for 1000 steps with 104 atoms

Performance: 0.034 ns/day, 713.287 hours/ns, 3.894 timesteps/s
99.9% CPU use with 1 MPI tasks x 1 OpenMP threads

MPI task timing breakdown:
Section |  min time  |  avg time  |  max time  |%varavg| %total
---------------------------------------------------------------
Pair    | 256.75     | 256.75     | 256.75     |   0.0 | 99.99
Neigh   | 0          | 0          | 0          |   0.0 |  0.00
Comm    | 0.0066385  | 0.0066385  | 0.0066385  |   0.0 |  0.00
Output  | 0.00066185 | 0.00066185 | 0.00066185 |   0.0 |  0.00
Modify  | 0.017669   | 0.017669   | 0.017669   |   0.0 |  0.01
Other   |            | 0.003316   |            |       |  0.00

Nlocal:        104.000 ave         104 max         104 min
Histogram: 1 0 0 0 0 0 0 0 0 0
Nghost:        1247.00 ave        1247 max        1247 min
Histogram: 1 0 0 0 0 0 0 0 0 0
Neighs:         0.00000 ave           0 max           0 min
Histogram: 1 0 0 0 0 0 0 0 0 0
FullNghs:      8416.00 ave        8416 max        8416 min
Histogram: 1 0 0 0 0 0 0 0 0 0

Total # of neighbors = 8416
Ave neighs/atom = 80.923077
Neighbor list builds = 0
Dangerous builds = 0
include potential.mod
# NOTE: This script can be modified for different pair styles
# See in.elastic for more info.

# we must undefine any fix ave/* fix before using reset_timestep
if "$(is_defined(fix,avp))" then "unfix avp"
unfix avp
reset_timestep 0

newton off

# Choose potential
# pair_style	sw
# pair_coeff * * Si.sw Si
pair_style	nequip
pair_coeff	* * tob14_l3-deployed.pth Ca Si O H

atom_modify sort 0 0.0
#kspace_style	ewald 1.0e-6# Setup neighbor style

neighbor 2.0 bin
neigh_modify once no every 1 delay 0 check yes



# Setup output

fix avp all ave/time  ${nevery} ${nrepeat} ${nfreq} c_thermo_press mode vector
fix avp all ave/time  10 ${nrepeat} ${nfreq} c_thermo_press mode vector
fix avp all ave/time  10 10 ${nfreq} c_thermo_press mode vector
fix avp all ave/time  10 10 100 c_thermo_press mode vector

#min_style cg
#minimize 1.0e-15 1.0e-15 100000 100000 #设置能量最小化

thermo		${nthermo}
thermo		100
thermo_style custom step temp pe press f_avp[1] f_avp[2] f_avp[3] f_avp[4] f_avp[5] f_avp[6]
WARNING: New thermo_style command, previous thermo_modify settings will be lost (src/output.cpp:689)
thermo_modify norm no

# Setup MD

timestep ${timestep}
timestep 0.0001
fix 4 all nve
if "${thermostat} == 1" then    "fix 5 all langevin ${temp} ${temp} ${tdamp} ${seed}"
fix 5 all langevin ${temp} ${temp} ${tdamp} ${seed}
fix 5 all langevin 300 ${temp} ${tdamp} ${seed}
fix 5 all langevin 300 300 ${tdamp} ${seed}
fix 5 all langevin 300 300 0.01 ${seed}
fix 5 all langevin 300 300 0.01 123457


run ${nrun}
run 300
Per MPI rank memory allocation (min/avg/max) = 2.973 | 2.973 | 2.973 Mbytes
Step Temp PotEng Press f_avp[1] f_avp[2] f_avp[3] f_avp[4] f_avp[5] f_avp[6] 
       0    320.07553   -660.62689    27098.844            0            0            0            0            0            0 
     100     251.8614   -660.72363    26477.577    32306.733    13859.362    24583.127    6454.1501      5348.74    -5021.399 
     200    266.01746   -660.52222    26292.177    36629.518    18686.731    21146.275    3167.3704    5371.7806   -9079.3416 
     300    255.98933   -660.28607    25638.831     34365.18    15484.268     27100.17    3035.7944    7149.5603   -5507.7655 
Loop time of 80.6453 on 1 procs for 300 steps with 104 atoms

Performance: 0.032 ns/day, 746.716 hours/ns, 3.720 timesteps/s
100.0% CPU use with 1 MPI tasks x 1 OpenMP threads

MPI task timing breakdown:
Section |  min time  |  avg time  |  max time  |%varavg| %total
---------------------------------------------------------------
Pair    | 80.637     | 80.637     | 80.637     |   0.0 | 99.99
Neigh   | 0          | 0          | 0          |   0.0 |  0.00
Comm    | 0.0019994  | 0.0019994  | 0.0019994  |   0.0 |  0.00
Output  | 0.00020003 | 0.00020003 | 0.00020003 |   0.0 |  0.00
Modify  | 0.0053673  | 0.0053673  | 0.0053673  |   0.0 |  0.01
Other   |            | 0.001001   |            |       |  0.00

Nlocal:        104.000 ave         104 max         104 min
Histogram: 1 0 0 0 0 0 0 0 0 0
Nghost:        1216.00 ave        1216 max        1216 min
Histogram: 1 0 0 0 0 0 0 0 0 0
Neighs:         0.00000 ave           0 max           0 min
Histogram: 1 0 0 0 0 0 0 0 0 0
FullNghs:      8440.00 ave        8440 max        8440 min
Histogram: 1 0 0 0 0 0 0 0 0 0

Total # of neighbors = 8440
Ave neighs/atom = 81.153846
Neighbor list builds = 0
Dangerous builds = 0

# Obtain new stress tensor

variable pxx1 equal f_avp[1]
variable pyy1 equal f_avp[2]
variable pzz1 equal f_avp[3]
variable pxy1 equal f_avp[4]
variable pxz1 equal f_avp[5]
variable pyz1 equal f_avp[6]

# Compute elastic constant from pressure tensor

variable C1neg equal ${d1}
variable C1neg equal 137.677117237762
variable C2neg equal ${d2}
variable C2neg equal 63.389093503449
variable C3neg equal ${d3}
variable C3neg equal 81.7599323142501
variable C4neg equal ${d4}
variable C4neg equal -11.954605536532
variable C5neg equal ${d5}
variable C5neg equal 0.862495552802453
variable C6neg equal ${d6}
variable C6neg equal -15.2726541966573

# Reset box and simulation parameters

clear
OMP_NUM_THREADS environment is not set. Defaulting to 1 thread. (src/comm.cpp:98)
  using 1 OpenMP thread(s) per MPI task
box tilt large
read_restart restart.equil
Reading restart file ...
  restart file = 29 Sep 2021, LAMMPS = 29 Sep 2021
  restoring atom style atomic from restart
  triclinic box = (0.095103223 0.086882847 0.38870770) to (6.8589983 6.2661315 28.034228) with tilt (2.5584106 0.52556074 1.3547112)
  1 by 1 by 1 MPI processor grid
  pair style nequip stores no restart info
  104 atoms
  read_restart CPU = 0.001 seconds
include potential.mod
# NOTE: This script can be modified for different pair styles
# See in.elastic for more info.

# we must undefine any fix ave/* fix before using reset_timestep
if "$(is_defined(fix,avp))" then "unfix avp"
reset_timestep 0

newton off

# Choose potential
# pair_style	sw
# pair_coeff * * Si.sw Si
pair_style	nequip
pair_coeff	* * tob14_l3-deployed.pth Ca Si O H

atom_modify sort 0 0.0
#kspace_style	ewald 1.0e-6# Setup neighbor style

neighbor 2.0 bin
neigh_modify once no every 1 delay 0 check yes



# Setup output

fix avp all ave/time  ${nevery} ${nrepeat} ${nfreq} c_thermo_press mode vector
fix avp all ave/time  10 ${nrepeat} ${nfreq} c_thermo_press mode vector
fix avp all ave/time  10 10 ${nfreq} c_thermo_press mode vector
fix avp all ave/time  10 10 100 c_thermo_press mode vector

#min_style cg
#minimize 1.0e-15 1.0e-15 100000 100000 #设置能量最小化

thermo		${nthermo}
thermo		100
thermo_style custom step temp pe press f_avp[1] f_avp[2] f_avp[3] f_avp[4] f_avp[5] f_avp[6]
thermo_modify norm no

# Setup MD

timestep ${timestep}
timestep 0.0001
fix 4 all nve
if "${thermostat} == 1" then    "fix 5 all langevin ${temp} ${temp} ${tdamp} ${seed}"
fix 5 all langevin ${temp} ${temp} ${tdamp} ${seed}
fix 5 all langevin 300 ${temp} ${tdamp} ${seed}
fix 5 all langevin 300 300 ${tdamp} ${seed}
fix 5 all langevin 300 300 0.01 ${seed}
fix 5 all langevin 300 300 0.01 123457



# Positive deformation

variable delta equal ${up}*${len0}
variable delta equal 0.02*${len0}
variable delta equal 0.02*6.76389504608471
variable deltaxy equal ${up}*xy
variable deltaxy equal 0.02*xy
variable deltaxz equal ${up}*xz
variable deltaxz equal 0.02*xz
variable deltayz equal ${up}*yz
variable deltayz equal 0.02*yz
if "${dir} == 1" then    "change_box all x delta 0 ${delta} xy delta ${deltaxy} xz delta ${deltaxz} remap units box"
change_box all x delta 0 ${delta} xy delta ${deltaxy} xz delta ${deltaxz} remap units box
change_box all x delta 0 0.135277900921694 xy delta ${deltaxy} xz delta ${deltaxz} remap units box
change_box all x delta 0 0.135277900921694 xy delta 0.051168211655824 xz delta ${deltaxz} remap units box
change_box all x delta 0 0.135277900921694 xy delta 0.051168211655824 xz delta 0.0105112148047561 remap units box
Changing box ...
  triclinic box = (0.095103223 0.086882847 0.38870770) to (6.9942762 6.2661315 28.034228) with tilt (2.5584106 0.52556074 1.3547112)
  triclinic box = (0.095103223 0.086882847 0.38870770) to (6.9942762 6.2661315 28.034228) with tilt (2.6095788 0.52556074 1.3547112)
  triclinic box = (0.095103223 0.086882847 0.38870770) to (6.9942762 6.2661315 28.034228) with tilt (2.6095788 0.53607196 1.3547112)
if "${dir} == 2" then    "change_box all y delta 0 ${delta} yz delta ${deltayz} remap units box"
if "${dir} == 3" then    "change_box all z delta 0 ${delta} remap units box"
if "${dir} == 4" then    "change_box all yz delta ${delta} remap units box"
if "${dir} == 5" then    "change_box all xz delta ${delta} remap units box"
if "${dir} == 6" then    "change_box all xy delta ${delta} remap units box"

# Run MD

run ${nequil}
run 1000
Neighbor list info ...
  update every 1 steps, delay 0 steps, check yes
  max neighbors/atom: 2000, page size: 100000
  master list distance cutoff = 6
  ghost atom cutoff = 6
  binsize = 3, bins = 4 3 10
  1 neighbor lists, perpetual/occasional/extra = 1 0 0
  (1) pair nequip, perpetual
      attributes: full, newton off
      pair build: full/bin/atomonly
      stencil: full/bin/3d
      bin: standard
Per MPI rank memory allocation (min/avg/max) = 2.972 | 2.972 | 2.972 Mbytes
Step Temp PotEng Press f_avp[1] f_avp[2] f_avp[3] f_avp[4] f_avp[5] f_avp[6] 
       0    276.56993   -660.95312   -15133.304            0            0            0            0            0            0 
     100    258.86262   -660.91852   -8688.7133   -25723.975   -6359.0558    1141.5642    7808.2411    4160.4682   -5632.7611 
     200    260.49716   -660.34668   -3444.6746   -12453.865   -4396.5138   -996.06187     10252.72    5551.1727   -6962.8927 
     300    245.37358    -660.0658   -1636.4146   -10060.409   -8582.8834    7605.4702    10508.782    4791.1333   -5792.1091 
     400    331.44187   -659.96539    2648.1295   -11652.385    1697.6989    12435.975     12503.51    2748.9336   -7330.9056 
     500    294.20915    -660.1391    21.782823   -11089.317    5760.1174    6692.1554    11118.098    5609.8352   -6081.8953 
     600    307.07684   -660.22449   -1290.5435   -13654.976   -4824.1745    10225.406    10905.191    10173.726   -4076.4646 
     700    324.69463   -660.43372    1664.4379   -5870.9917    1266.6853    15439.905    10266.302    3786.8007   -4501.0573 
     800    309.42736   -660.62616   -2656.8526    -14496.31   -2255.9428    14819.728    10372.237    2983.3852   -6713.0139 
     900    338.05121   -660.52148   -7490.0423   -23358.057   -7989.0201    5771.5661    6501.8119    9439.0159   -2886.9128 
    1000    319.96008   -660.61609    1973.2989   -20482.661   -10612.451    11211.478    5587.0691    7071.0536    2522.8549 
Loop time of 251.859 on 1 procs for 1000 steps with 104 atoms

Performance: 0.034 ns/day, 699.609 hours/ns, 3.970 timesteps/s
100.0% CPU use with 1 MPI tasks x 1 OpenMP threads

MPI task timing breakdown:
Section |  min time  |  avg time  |  max time  |%varavg| %total
---------------------------------------------------------------
Pair    | 251.83     | 251.83     | 251.83     |   0.0 | 99.99
Neigh   | 0          | 0          | 0          |   0.0 |  0.00
Comm    | 0.0071676  | 0.0071676  | 0.0071676  |   0.0 |  0.00
Output  | 0.00067925 | 0.00067925 | 0.00067925 |   0.0 |  0.00
Modify  | 0.020356   | 0.020356   | 0.020356   |   0.0 |  0.01
Other   |            | 0.003736   |            |       |  0.00

Nlocal:        104.000 ave         104 max         104 min
Histogram: 1 0 0 0 0 0 0 0 0 0
Nghost:        1205.00 ave        1205 max        1205 min
Histogram: 1 0 0 0 0 0 0 0 0 0
Neighs:         0.00000 ave           0 max           0 min
Histogram: 1 0 0 0 0 0 0 0 0 0
FullNghs:      8052.00 ave        8052 max        8052 min
Histogram: 1 0 0 0 0 0 0 0 0 0

Total # of neighbors = 8052
Ave neighs/atom = 77.423077
Neighbor list builds = 0
Dangerous builds = 0
include potential.mod
# NOTE: This script can be modified for different pair styles
# See in.elastic for more info.

# we must undefine any fix ave/* fix before using reset_timestep
if "$(is_defined(fix,avp))" then "unfix avp"
unfix avp
reset_timestep 0

newton off

# Choose potential
# pair_style	sw
# pair_coeff * * Si.sw Si
pair_style	nequip
pair_coeff	* * tob14_l3-deployed.pth Ca Si O H

atom_modify sort 0 0.0
#kspace_style	ewald 1.0e-6# Setup neighbor style

neighbor 2.0 bin
neigh_modify once no every 1 delay 0 check yes



# Setup output

fix avp all ave/time  ${nevery} ${nrepeat} ${nfreq} c_thermo_press mode vector
fix avp all ave/time  10 ${nrepeat} ${nfreq} c_thermo_press mode vector
fix avp all ave/time  10 10 ${nfreq} c_thermo_press mode vector
fix avp all ave/time  10 10 100 c_thermo_press mode vector

#min_style cg
#minimize 1.0e-15 1.0e-15 100000 100000 #设置能量最小化

thermo		${nthermo}
thermo		100
thermo_style custom step temp pe press f_avp[1] f_avp[2] f_avp[3] f_avp[4] f_avp[5] f_avp[6]
WARNING: New thermo_style command, previous thermo_modify settings will be lost (src/output.cpp:689)
thermo_modify norm no

# Setup MD

timestep ${timestep}
timestep 0.0001
fix 4 all nve
if "${thermostat} == 1" then    "fix 5 all langevin ${temp} ${temp} ${tdamp} ${seed}"
fix 5 all langevin ${temp} ${temp} ${tdamp} ${seed}
fix 5 all langevin 300 ${temp} ${tdamp} ${seed}
fix 5 all langevin 300 300 ${tdamp} ${seed}
fix 5 all langevin 300 300 0.01 ${seed}
fix 5 all langevin 300 300 0.01 123457


run ${nrun}
run 300
Per MPI rank memory allocation (min/avg/max) = 2.972 | 2.972 | 2.972 Mbytes
Step Temp PotEng Press f_avp[1] f_avp[2] f_avp[3] f_avp[4] f_avp[5] f_avp[6] 
       0    319.96008   -660.61603    1973.2913            0            0            0            0            0            0 
     100      250.988   -660.73383     1803.223   -11601.801   -3769.9606    11753.633    8512.3984    4766.0142   -4862.2911 
     200    264.13524   -660.48639    2704.5182   -6387.4705    1346.2409    8382.5886    5546.7808    4660.8633   -8832.5338 
     300     255.6398   -660.26233    2909.2481   -7498.6254   -1687.3156    14683.016    5050.6689    6180.0143   -5587.0088 
Loop time of 80.0004 on 1 procs for 300 steps with 104 atoms

Performance: 0.032 ns/day, 740.745 hours/ns, 3.750 timesteps/s
99.9% CPU use with 1 MPI tasks x 1 OpenMP threads

MPI task timing breakdown:
Section |  min time  |  avg time  |  max time  |%varavg| %total
---------------------------------------------------------------
Pair    | 79.99      | 79.99      | 79.99      |   0.0 | 99.99
Neigh   | 0          | 0          | 0          |   0.0 |  0.00
Comm    | 0.0022378  | 0.0022378  | 0.0022378  |   0.0 |  0.00
Output  | 0.00024629 | 0.00024629 | 0.00024629 |   0.0 |  0.00
Modify  | 0.0065243  | 0.0065243  | 0.0065243  |   0.0 |  0.01
Other   |            | 0.001248   |            |       |  0.00

Nlocal:        104.000 ave         104 max         104 min
Histogram: 1 0 0 0 0 0 0 0 0 0
Nghost:        1207.00 ave        1207 max        1207 min
Histogram: 1 0 0 0 0 0 0 0 0 0
Neighs:         0.00000 ave           0 max           0 min
Histogram: 1 0 0 0 0 0 0 0 0 0
FullNghs:      8062.00 ave        8062 max        8062 min
Histogram: 1 0 0 0 0 0 0 0 0 0

Total # of neighbors = 8062
Ave neighs/atom = 77.519231
Neighbor list builds = 0
Dangerous builds = 0

# Obtain new stress tensor

variable pxx1 equal f_avp[1]
variable pyy1 equal f_avp[2]
variable pzz1 equal f_avp[3]
variable pxy1 equal f_avp[4]
variable pxz1 equal f_avp[5]
variable pyz1 equal f_avp[6]

# Compute elastic constant from pressure tensor

variable C1pos equal ${d1}
variable C1pos equal 71.6419095784792
variable C2pos equal ${d2}
variable C2pos equal 22.4688236942902
variable C3pos equal ${d3}
variable C3pos equal -19.6741612610895
variable C4pos equal ${d4}
variable C4pos equal 12.3508216463902
variable C5pos equal ${d5}
variable C5pos equal 3.98523449236896
variable C6pos equal ${d6}
variable C6pos equal 5.19828208384001

# Combine positive and negative

variable C1${dir} equal 0.5*(${C1neg}+${C1pos})
variable C11 equal 0.5*(${C1neg}+${C1pos})
variable C11 equal 0.5*(137.677117237762+${C1pos})
variable C11 equal 0.5*(137.677117237762+71.6419095784792)
variable C2${dir} equal 0.5*(${C2neg}+${C2pos})
variable C21 equal 0.5*(${C2neg}+${C2pos})
variable C21 equal 0.5*(63.389093503449+${C2pos})
variable C21 equal 0.5*(63.389093503449+22.4688236942902)
variable C3${dir} equal 0.5*(${C3neg}+${C3pos})
variable C31 equal 0.5*(${C3neg}+${C3pos})
variable C31 equal 0.5*(81.7599323142501+${C3pos})
variable C31 equal 0.5*(81.7599323142501+-19.6741612610895)
variable C4${dir} equal 0.5*(${C4neg}+${C4pos})
variable C41 equal 0.5*(${C4neg}+${C4pos})
variable C41 equal 0.5*(-11.954605536532+${C4pos})
variable C41 equal 0.5*(-11.954605536532+12.3508216463902)
variable C5${dir} equal 0.5*(${C5neg}+${C5pos})
variable C51 equal 0.5*(${C5neg}+${C5pos})
variable C51 equal 0.5*(0.862495552802453+${C5pos})
variable C51 equal 0.5*(0.862495552802453+3.98523449236896)
variable C6${dir} equal 0.5*(${C6neg}+${C6pos})
variable C61 equal 0.5*(${C6neg}+${C6pos})
variable C61 equal 0.5*(-15.2726541966573+${C6pos})
variable C61 equal 0.5*(-15.2726541966573+5.19828208384001)

# Delete dir to make sure it is not reused

variable dir delete

# uyy Perturbation

variable dir equal 2
include displace.mod
# NOTE: This script should not need to be
# modified. See in.elastic for more info.
#
# Find which reference length to use

if "${dir} == 1" then    "variable len0 equal ${lx0}"
if "${dir} == 2" then    "variable len0 equal ${ly0}"
variable len0 equal ${ly0}
variable len0 equal 6.17924860419115
if "${dir} == 3" then    "variable len0 equal ${lz0}"
if "${dir} == 4" then    "variable len0 equal ${lz0}"
if "${dir} == 5" then    "variable len0 equal ${lz0}"
if "${dir} == 6" then    "variable len0 equal ${ly0}"

# Reset box and simulation parameters

clear
OMP_NUM_THREADS environment is not set. Defaulting to 1 thread. (src/comm.cpp:98)
  using 1 OpenMP thread(s) per MPI task
box tilt large
read_restart restart.equil
Reading restart file ...
  restart file = 29 Sep 2021, LAMMPS = 29 Sep 2021
  restoring atom style atomic from restart
  triclinic box = (0.095103223 0.086882847 0.38870770) to (6.8589983 6.2661315 28.034228) with tilt (2.5584106 0.52556074 1.3547112)
  1 by 1 by 1 MPI processor grid
  pair style nequip stores no restart info
  104 atoms
  read_restart CPU = 0.002 seconds
include potential.mod
# NOTE: This script can be modified for different pair styles
# See in.elastic for more info.

# we must undefine any fix ave/* fix before using reset_timestep
if "$(is_defined(fix,avp))" then "unfix avp"
reset_timestep 0

newton off

# Choose potential
# pair_style	sw
# pair_coeff * * Si.sw Si
pair_style	nequip
pair_coeff	* * tob14_l3-deployed.pth Ca Si O H

atom_modify sort 0 0.0
#kspace_style	ewald 1.0e-6# Setup neighbor style

neighbor 2.0 bin
neigh_modify once no every 1 delay 0 check yes



# Setup output

fix avp all ave/time  ${nevery} ${nrepeat} ${nfreq} c_thermo_press mode vector
fix avp all ave/time  10 ${nrepeat} ${nfreq} c_thermo_press mode vector
fix avp all ave/time  10 10 ${nfreq} c_thermo_press mode vector
fix avp all ave/time  10 10 100 c_thermo_press mode vector

#min_style cg
#minimize 1.0e-15 1.0e-15 100000 100000 #设置能量最小化

thermo		${nthermo}
thermo		100
thermo_style custom step temp pe press f_avp[1] f_avp[2] f_avp[3] f_avp[4] f_avp[5] f_avp[6]
thermo_modify norm no

# Setup MD

timestep ${timestep}
timestep 0.0001
fix 4 all nve
if "${thermostat} == 1" then    "fix 5 all langevin ${temp} ${temp} ${tdamp} ${seed}"
fix 5 all langevin ${temp} ${temp} ${tdamp} ${seed}
fix 5 all langevin 300 ${temp} ${tdamp} ${seed}
fix 5 all langevin 300 300 ${tdamp} ${seed}
fix 5 all langevin 300 300 0.01 ${seed}
fix 5 all langevin 300 300 0.01 123457



# Negative deformation

variable delta equal -${up}*${len0}
variable delta equal -0.02*${len0}
variable delta equal -0.02*6.17924860419115
variable deltaxy equal -${up}*xy
variable deltaxy equal -0.02*xy
variable deltaxz equal -${up}*xz
variable deltaxz equal -0.02*xz
variable deltayz equal -${up}*yz
variable deltayz equal -0.02*yz
if "${dir} == 1" then    "change_box all x delta 0 ${delta} xy delta ${deltaxy} xz delta ${deltaxz} remap units box"
if "${dir} == 2" then    "change_box all y delta 0 ${delta} yz delta ${deltayz} remap units box"
change_box all y delta 0 ${delta} yz delta ${deltayz} remap units box
change_box all y delta 0 -0.123584972083823 yz delta ${deltayz} remap units box
change_box all y delta 0 -0.123584972083823 yz delta -0.0270942237015451 remap units box
Changing box ...
  triclinic box = (0.095103223 0.086882847 0.38870770) to (6.8589983 6.1425465 28.034228) with tilt (2.5584106 0.52556074 1.3547112)
  triclinic box = (0.095103223 0.086882847 0.38870770) to (6.8589983 6.1425465 28.034228) with tilt (2.5584106 0.52556074 1.3276170)
if "${dir} == 3" then    "change_box all z delta 0 ${delta} remap units box"
if "${dir} == 4" then    "change_box all yz delta ${delta} remap units box"
if "${dir} == 5" then    "change_box all xz delta ${delta} remap units box"
if "${dir} == 6" then    "change_box all xy delta ${delta} remap units box"

# Run MD

run ${nequil}
run 1000
Neighbor list info ...
  update every 1 steps, delay 0 steps, check yes
  max neighbors/atom: 2000, page size: 100000
  master list distance cutoff = 6
  ghost atom cutoff = 6
  binsize = 3, bins = 4 3 10
  1 neighbor lists, perpetual/occasional/extra = 1 0 0
  (1) pair nequip, perpetual
      attributes: full, newton off
      pair build: full/bin/atomonly
      stencil: full/bin/3d
      bin: standard
Per MPI rank memory allocation (min/avg/max) = 2.973 | 2.973 | 2.973 Mbytes
Step Temp PotEng Press f_avp[1] f_avp[2] f_avp[3] f_avp[4] f_avp[5] f_avp[6] 
       0    276.56993   -660.89563    34574.333            0            0            0            0            0            0 
     100    262.69491   -660.86658     29811.71     18267.99    41938.527    22409.652    7006.3665    4815.0983   -5788.8825 
     200    261.10412    -660.3183    25115.578    19855.043    34031.043    18060.539    5502.1799    6233.4246    -6724.723 
     300    246.97189   -660.10431    24614.065    18851.735    25279.622    22609.554     6339.244    5182.6202   -5229.0228 
     400    330.44517   -660.01575    28736.106    18063.174    35104.349    26228.364    9845.9499    3331.9146   -7291.6493 
     500    295.15236   -660.20282    26271.663    18657.859    39091.488    21231.025    7720.4419    6611.2274   -6085.4075 
     600    303.65374   -660.29926    25385.984    16319.451    27134.038    25966.286     7622.213    10617.196    -3597.022 
     700    327.87605   -660.53217    28159.676    24244.226    33803.083    30665.333    7436.7441    3435.3886   -4447.2043 
     800    308.36362   -660.71661    22995.984    14161.191    30132.258    28920.618    7402.2754    3263.1294   -6397.2657 
     900    335.97287   -660.59418    17722.509    4860.2543    24332.878    18852.505    3499.0957    10010.733   -2120.0691 
    1000    319.62769   -660.68335    27423.577    8508.0522    21445.295    24926.937    2561.9464    7315.3775    3166.0701 
Loop time of 259.102 on 1 procs for 1000 steps with 104 atoms

Performance: 0.033 ns/day, 719.728 hours/ns, 3.859 timesteps/s
100.0% CPU use with 1 MPI tasks x 1 OpenMP threads

MPI task timing breakdown:
Section |  min time  |  avg time  |  max time  |%varavg| %total
---------------------------------------------------------------
Pair    | 259.07     | 259.07     | 259.07     |   0.0 | 99.99
Neigh   | 0          | 0          | 0          |   0.0 |  0.00
Comm    | 0.0072854  | 0.0072854  | 0.0072854  |   0.0 |  0.00
Output  | 0.00071335 | 0.00071335 | 0.00071335 |   0.0 |  0.00
Modify  | 0.020018   | 0.020018   | 0.020018   |   0.0 |  0.01
Other   |            | 0.003577   |            |       |  0.00

Nlocal:        104.000 ave         104 max         104 min
Histogram: 1 0 0 0 0 0 0 0 0 0
Nghost:        1241.00 ave        1241 max        1241 min
Histogram: 1 0 0 0 0 0 0 0 0 0
Neighs:         0.00000 ave           0 max           0 min
Histogram: 1 0 0 0 0 0 0 0 0 0
FullNghs:      8406.00 ave        8406 max        8406 min
Histogram: 1 0 0 0 0 0 0 0 0 0

Total # of neighbors = 8406
Ave neighs/atom = 80.826923
Neighbor list builds = 0
Dangerous builds = 0
include potential.mod
# NOTE: This script can be modified for different pair styles
# See in.elastic for more info.

# we must undefine any fix ave/* fix before using reset_timestep
if "$(is_defined(fix,avp))" then "unfix avp"
unfix avp
reset_timestep 0

newton off

# Choose potential
# pair_style	sw
# pair_coeff * * Si.sw Si
pair_style	nequip
pair_coeff	* * tob14_l3-deployed.pth Ca Si O H

atom_modify sort 0 0.0
#kspace_style	ewald 1.0e-6# Setup neighbor style

neighbor 2.0 bin
neigh_modify once no every 1 delay 0 check yes



# Setup output

fix avp all ave/time  ${nevery} ${nrepeat} ${nfreq} c_thermo_press mode vector
fix avp all ave/time  10 ${nrepeat} ${nfreq} c_thermo_press mode vector
fix avp all ave/time  10 10 ${nfreq} c_thermo_press mode vector
fix avp all ave/time  10 10 100 c_thermo_press mode vector

#min_style cg
#minimize 1.0e-15 1.0e-15 100000 100000 #设置能量最小化

thermo		${nthermo}
thermo		100
thermo_style custom step temp pe press f_avp[1] f_avp[2] f_avp[3] f_avp[4] f_avp[5] f_avp[6]
WARNING: New thermo_style command, previous thermo_modify settings will be lost (src/output.cpp:689)
thermo_modify norm no

# Setup MD

timestep ${timestep}
timestep 0.0001
fix 4 all nve
if "${thermostat} == 1" then    "fix 5 all langevin ${temp} ${temp} ${tdamp} ${seed}"
fix 5 all langevin ${temp} ${temp} ${tdamp} ${seed}
fix 5 all langevin 300 ${temp} ${tdamp} ${seed}
fix 5 all langevin 300 300 ${tdamp} ${seed}
fix 5 all langevin 300 300 0.01 ${seed}
fix 5 all langevin 300 300 0.01 123457


run ${nrun}
run 300
Per MPI rank memory allocation (min/avg/max) = 2.973 | 2.973 | 2.973 Mbytes
Step Temp PotEng Press f_avp[1] f_avp[2] f_avp[3] f_avp[4] f_avp[5] f_avp[6] 
       0    319.62769   -660.68317    27423.576            0            0            0            0            0            0 
     100    252.05862    -660.7569    26833.213    17895.579    28305.203    25086.728    5488.9529    5554.4565   -5057.1151 
     200    264.39535   -660.55115    26503.066    22563.501    32679.915    21515.232    2499.6404    5479.5325   -8555.2545 
     300    258.03597   -660.32806    25991.142    20554.159    29125.602    27579.298    2308.3656    7262.0386   -4874.0077 
Loop time of 79.542 on 1 procs for 300 steps with 104 atoms

Performance: 0.033 ns/day, 736.500 hours/ns, 3.772 timesteps/s
99.9% CPU use with 1 MPI tasks x 1 OpenMP threads

MPI task timing breakdown:
Section |  min time  |  avg time  |  max time  |%varavg| %total
---------------------------------------------------------------
Pair    | 79.534     | 79.534     | 79.534     |   0.0 | 99.99
Neigh   | 0          | 0          | 0          |   0.0 |  0.00
Comm    | 0.0018575  | 0.0018575  | 0.0018575  |   0.0 |  0.00
Output  | 0.00021386 | 0.00021386 | 0.00021386 |   0.0 |  0.00
Modify  | 0.0052454  | 0.0052454  | 0.0052454  |   0.0 |  0.01
Other   |            | 0.0008924  |            |       |  0.00

Nlocal:        104.000 ave         104 max         104 min
Histogram: 1 0 0 0 0 0 0 0 0 0
Nghost:        1216.00 ave        1216 max        1216 min
Histogram: 1 0 0 0 0 0 0 0 0 0
Neighs:         0.00000 ave           0 max           0 min
Histogram: 1 0 0 0 0 0 0 0 0 0
FullNghs:      8424.00 ave        8424 max        8424 min
Histogram: 1 0 0 0 0 0 0 0 0 0

Total # of neighbors = 8424
Ave neighs/atom = 81.000000
Neighbor list builds = 0
Dangerous builds = 0

# Obtain new stress tensor

variable pxx1 equal f_avp[1]
variable pyy1 equal f_avp[2]
variable pzz1 equal f_avp[3]
variable pxy1 equal f_avp[4]
variable pxz1 equal f_avp[5]
variable pyz1 equal f_avp[6]

# Compute elastic constant from pressure tensor

variable C1neg equal ${d1}
variable C1neg equal 68.622012359086
variable C2neg equal ${d2}
variable C2neg equal 131.595765904536
variable C3neg equal ${d3}
variable C3neg equal 84.155572888608
variable C4neg equal ${d4}
variable C4neg equal -8.7858165176979
variable C5neg equal ${d5}
variable C5neg equal 1.42488671999545
variable C6neg equal ${d6}
variable C6neg equal -18.9097981492128

# Reset box and simulation parameters

clear
OMP_NUM_THREADS environment is not set. Defaulting to 1 thread. (src/comm.cpp:98)
  using 1 OpenMP thread(s) per MPI task
box tilt large
read_restart restart.equil
Reading restart file ...
  restart file = 29 Sep 2021, LAMMPS = 29 Sep 2021
  restoring atom style atomic from restart
  triclinic box = (0.095103223 0.086882847 0.38870770) to (6.8589983 6.2661315 28.034228) with tilt (2.5584106 0.52556074 1.3547112)
  1 by 1 by 1 MPI processor grid
  pair style nequip stores no restart info
  104 atoms
  read_restart CPU = 0.002 seconds
include potential.mod
# NOTE: This script can be modified for different pair styles
# See in.elastic for more info.

# we must undefine any fix ave/* fix before using reset_timestep
if "$(is_defined(fix,avp))" then "unfix avp"
reset_timestep 0

newton off

# Choose potential
# pair_style	sw
# pair_coeff * * Si.sw Si
pair_style	nequip
pair_coeff	* * tob14_l3-deployed.pth Ca Si O H

atom_modify sort 0 0.0
#kspace_style	ewald 1.0e-6# Setup neighbor style

neighbor 2.0 bin
neigh_modify once no every 1 delay 0 check yes



# Setup output

fix avp all ave/time  ${nevery} ${nrepeat} ${nfreq} c_thermo_press mode vector
fix avp all ave/time  10 ${nrepeat} ${nfreq} c_thermo_press mode vector
fix avp all ave/time  10 10 ${nfreq} c_thermo_press mode vector
fix avp all ave/time  10 10 100 c_thermo_press mode vector

#min_style cg
#minimize 1.0e-15 1.0e-15 100000 100000 #设置能量最小化

thermo		${nthermo}
thermo		100
thermo_style custom step temp pe press f_avp[1] f_avp[2] f_avp[3] f_avp[4] f_avp[5] f_avp[6]
thermo_modify norm no

# Setup MD

timestep ${timestep}
timestep 0.0001
fix 4 all nve
if "${thermostat} == 1" then    "fix 5 all langevin ${temp} ${temp} ${tdamp} ${seed}"
fix 5 all langevin ${temp} ${temp} ${tdamp} ${seed}
fix 5 all langevin 300 ${temp} ${tdamp} ${seed}
fix 5 all langevin 300 300 ${tdamp} ${seed}
fix 5 all langevin 300 300 0.01 ${seed}
fix 5 all langevin 300 300 0.01 123457



# Positive deformation

variable delta equal ${up}*${len0}
variable delta equal 0.02*${len0}
variable delta equal 0.02*6.17924860419115
variable deltaxy equal ${up}*xy
variable deltaxy equal 0.02*xy
variable deltaxz equal ${up}*xz
variable deltaxz equal 0.02*xz
variable deltayz equal ${up}*yz
variable deltayz equal 0.02*yz
if "${dir} == 1" then    "change_box all x delta 0 ${delta} xy delta ${deltaxy} xz delta ${deltaxz} remap units box"
if "${dir} == 2" then    "change_box all y delta 0 ${delta} yz delta ${deltayz} remap units box"
change_box all y delta 0 ${delta} yz delta ${deltayz} remap units box
change_box all y delta 0 0.123584972083823 yz delta ${deltayz} remap units box
change_box all y delta 0 0.123584972083823 yz delta 0.0270942237015451 remap units box
Changing box ...
  triclinic box = (0.095103223 0.086882847 0.38870770) to (6.8589983 6.3897164 28.034228) with tilt (2.5584106 0.52556074 1.3547112)
  triclinic box = (0.095103223 0.086882847 0.38870770) to (6.8589983 6.3897164 28.034228) with tilt (2.5584106 0.52556074 1.3818054)
if "${dir} == 3" then    "change_box all z delta 0 ${delta} remap units box"
if "${dir} == 4" then    "change_box all yz delta ${delta} remap units box"
if "${dir} == 5" then    "change_box all xz delta ${delta} remap units box"
if "${dir} == 6" then    "change_box all xy delta ${delta} remap units box"

# Run MD

run ${nequil}
run 1000
Neighbor list info ...
  update every 1 steps, delay 0 steps, check yes
  max neighbors/atom: 2000, page size: 100000
  master list distance cutoff = 6
  ghost atom cutoff = 6
  binsize = 3, bins = 4 3 10
  1 neighbor lists, perpetual/occasional/extra = 1 0 0
  (1) pair nequip, perpetual
      attributes: full, newton off
      pair build: full/bin/atomonly
      stencil: full/bin/3d
      bin: standard
Per MPI rank memory allocation (min/avg/max) = 2.972 | 2.972 | 2.972 Mbytes
Step Temp PotEng Press f_avp[1] f_avp[2] f_avp[3] f_avp[4] f_avp[5] f_avp[6] 
       0    276.56993   -660.81201   -14497.511            0            0            0            0            0            0 
     100      256.498   -660.82544   -9736.4819   -6830.2854   -26980.407   -357.32065    10695.521    4980.8468   -5944.2835 
     200    261.59357   -660.29858   -5865.3097   -939.03711   -20773.404   -3534.9881    11043.016    6466.7821   -7369.6113 
     300    244.70614   -659.98285   -3147.4472    1404.6845   -23789.628    4957.3488     11299.91    5645.8788   -6228.7103 
     400    333.31664   -659.91229    1254.6436    695.94208   -12854.951    10890.987    13995.337    3429.3474   -7729.6398 
     500    291.92225   -660.05225   -1479.8939    433.61941   -8098.1541    5454.5321    12118.128    6312.6192   -6579.7354 
     600     305.8349   -660.12207   -2275.1981   -2153.1838    -17732.88    8735.9989    11657.494    10824.844   -4790.0182 
     700    325.61332   -660.35706    800.62108    6242.7858   -11810.051    14356.239    11212.411    4393.6033   -5118.3832 
     800    310.59945   -660.55096   -3383.9149   -2355.1964   -15616.756    14108.889     11650.21    3292.8576   -7002.2606 
     900    335.29462   -660.43378   -8033.6694   -11584.754   -21244.603    4792.2388    7808.9024     9871.886   -3419.4691 
    1000    320.04068   -660.52966    1574.5635   -8425.6935   -23620.252    10153.598    7092.0434    7254.2751    2312.5857 
Loop time of 244.68 on 1 procs for 1000 steps with 104 atoms

Performance: 0.035 ns/day, 679.667 hours/ns, 4.087 timesteps/s
99.9% CPU use with 1 MPI tasks x 1 OpenMP threads

MPI task timing breakdown:
Section |  min time  |  avg time  |  max time  |%varavg| %total
---------------------------------------------------------------
Pair    | 244.65     | 244.65     | 244.65     |   0.0 | 99.99
Neigh   | 0          | 0          | 0          |   0.0 |  0.00
Comm    | 0.0065484  | 0.0065484  | 0.0065484  |   0.0 |  0.00
Output  | 0.00057364 | 0.00057364 | 0.00057364 |   0.0 |  0.00
Modify  | 0.018493   | 0.018493   | 0.018493   |   0.0 |  0.01
Other   |            | 0.003258   |            |       |  0.00

Nlocal:        104.000 ave         104 max         104 min
Histogram: 1 0 0 0 0 0 0 0 0 0
Nghost:        1202.00 ave        1202 max        1202 min
Histogram: 1 0 0 0 0 0 0 0 0 0
Neighs:         0.00000 ave           0 max           0 min
Histogram: 1 0 0 0 0 0 0 0 0 0
FullNghs:      8068.00 ave        8068 max        8068 min
Histogram: 1 0 0 0 0 0 0 0 0 0

Total # of neighbors = 8068
Ave neighs/atom = 77.576923
Neighbor list builds = 0
Dangerous builds = 0
include potential.mod
# NOTE: This script can be modified for different pair styles
# See in.elastic for more info.

# we must undefine any fix ave/* fix before using reset_timestep
if "$(is_defined(fix,avp))" then "unfix avp"
unfix avp
reset_timestep 0

newton off

# Choose potential
# pair_style	sw
# pair_coeff * * Si.sw Si
pair_style	nequip
pair_coeff	* * tob14_l3-deployed.pth Ca Si O H

atom_modify sort 0 0.0
#kspace_style	ewald 1.0e-6# Setup neighbor style

neighbor 2.0 bin
neigh_modify once no every 1 delay 0 check yes



# Setup output

fix avp all ave/time  ${nevery} ${nrepeat} ${nfreq} c_thermo_press mode vector
fix avp all ave/time  10 ${nrepeat} ${nfreq} c_thermo_press mode vector
fix avp all ave/time  10 10 ${nfreq} c_thermo_press mode vector
fix avp all ave/time  10 10 100 c_thermo_press mode vector

#min_style cg
#minimize 1.0e-15 1.0e-15 100000 100000 #设置能量最小化

thermo		${nthermo}
thermo		100
thermo_style custom step temp pe press f_avp[1] f_avp[2] f_avp[3] f_avp[4] f_avp[5] f_avp[6]
WARNING: New thermo_style command, previous thermo_modify settings will be lost (src/output.cpp:689)
thermo_modify norm no

# Setup MD

timestep ${timestep}
timestep 0.0001
fix 4 all nve
if "${thermostat} == 1" then    "fix 5 all langevin ${temp} ${temp} ${tdamp} ${seed}"
fix 5 all langevin ${temp} ${temp} ${tdamp} ${seed}
fix 5 all langevin 300 ${temp} ${tdamp} ${seed}
fix 5 all langevin 300 300 ${tdamp} ${seed}
fix 5 all langevin 300 300 0.01 ${seed}
fix 5 all langevin 300 300 0.01 123457


run ${nrun}
run 300
Per MPI rank memory allocation (min/avg/max) = 2.972 | 2.972 | 2.972 Mbytes
Step Temp PotEng Press f_avp[1] f_avp[2] f_avp[3] f_avp[4] f_avp[5] f_avp[6] 
       0    320.04068   -660.52972    1574.5814            0            0            0            0            0            0 
     100    250.84045   -660.66772    1344.3857    586.06902   -16329.084    11104.282    9890.3421    4665.7474   -4861.1449 
     200    266.20873   -660.42566    2309.9983    5481.4108   -10621.544    7970.1684    6751.6672    4663.4883   -9220.6986 
     300    254.30417   -660.18634    2436.8437     3917.986   -13329.328    14064.404    6343.8317    6214.3049   -6182.1213 
Loop time of 76.8777 on 1 procs for 300 steps with 104 atoms

Performance: 0.034 ns/day, 711.831 hours/ns, 3.902 timesteps/s
99.9% CPU use with 1 MPI tasks x 1 OpenMP threads

MPI task timing breakdown:
Section |  min time  |  avg time  |  max time  |%varavg| %total
---------------------------------------------------------------
Pair    | 76.87      | 76.87      | 76.87      |   0.0 | 99.99
Neigh   | 0          | 0          | 0          |   0.0 |  0.00
Comm    | 0.0018544  | 0.0018544  | 0.0018544  |   0.0 |  0.00
Output  | 0.0002079  | 0.0002079  | 0.0002079  |   0.0 |  0.00
Modify  | 0.0051336  | 0.0051336  | 0.0051336  |   0.0 |  0.01
Other   |            | 0.0009081  |            |       |  0.00

Nlocal:        104.000 ave         104 max         104 min
Histogram: 1 0 0 0 0 0 0 0 0 0
Nghost:        1187.00 ave        1187 max        1187 min
Histogram: 1 0 0 0 0 0 0 0 0 0
Neighs:         0.00000 ave           0 max           0 min
Histogram: 1 0 0 0 0 0 0 0 0 0
FullNghs:      8088.00 ave        8088 max        8088 min
Histogram: 1 0 0 0 0 0 0 0 0 0

Total # of neighbors = 8088
Ave neighs/atom = 77.769231
Neighbor list builds = 0
Dangerous builds = 0

# Obtain new stress tensor

variable pxx1 equal f_avp[1]
variable pyy1 equal f_avp[2]
variable pzz1 equal f_avp[3]
variable pxy1 equal f_avp[4]
variable pxz1 equal f_avp[5]
variable pyz1 equal f_avp[6]

# Compute elastic constant from pressure tensor

variable C1pos equal ${d1}
variable C1pos equal 14.5588525345593
variable C2pos equal ${d2}
variable C2pos equal 80.6788870751557
variable C3pos equal ${d3}
variable C3pos equal -16.5811039841145
variable C4pos equal ${d4}
variable C4pos equal 15.3263842647113
variable C5pos equal ${d5}
variable C5pos equal 3.8137813292884
variable C6pos equal ${d6}
variable C6pos equal -1.2675320097427

# Combine positive and negative

[...]
Comm    | 0.0018141  | 0.0018141  | 0.0018141  |   0.0 |  0.00
Output  | 0.00016689 | 0.00016689 | 0.00016689 |   0.0 |  0.00
Modify  | 0.00491    | 0.00491    | 0.00491    |   0.0 |  0.01
Other   |            | 0.0008874  |            |       |  0.00

Nlocal:        104.000 ave         104 max         104 min
Histogram: 1 0 0 0 0 0 0 0 0 0
Nghost:        1201.00 ave        1201 max        1201 min
Histogram: 1 0 0 0 0 0 0 0 0 0
Neighs:         0.00000 ave           0 max           0 min
Histogram: 1 0 0 0 0 0 0 0 0 0
FullNghs:      8230.00 ave        8230 max        8230 min
Histogram: 1 0 0 0 0 0 0 0 0 0

Total # of neighbors = 8230
Ave neighs/atom = 79.134615
Neighbor list builds = 0
Dangerous builds = 0

# Obtain new stress tensor

variable pxx1 equal f_avp[1]
variable pyy1 equal f_avp[2]
variable pzz1 equal f_avp[3]
variable pxy1 equal f_avp[4]
variable pxz1 equal f_avp[5]
variable pyz1 equal f_avp[6]

# Compute elastic constant from pressure tensor

variable C1neg equal ${d1}
variable C1neg equal 18.678708507257
variable C2neg equal ${d2}
variable C2neg equal 8.80128126264825
variable C3neg equal ${d3}
variable C3neg equal 37.918419003455
variable C4neg equal ${d4}
variable C4neg equal -13.352872939895
variable C5neg equal ${d5}
variable C5neg equal -2.44092093282765
variable C6neg equal ${d6}
variable C6neg equal 30.3129119191536

# Reset box and simulation parameters

clear
OMP_NUM_THREADS environment is not set. Defaulting to 1 thread. (src/comm.cpp:98)
  using 1 OpenMP thread(s) per MPI task
box tilt large
read_restart restart.equil
Reading restart file ...
  restart file = 29 Sep 2021, LAMMPS = 29 Sep 2021
  restoring atom style atomic from restart
  triclinic box = (0.095103223 0.086882847 0.38870770) to (6.8589983 6.2661315 28.034228) with tilt (2.5584106 0.52556074 1.3547112)
  1 by 1 by 1 MPI processor grid
  pair style nequip stores no restart info
  104 atoms
  read_restart CPU = 0.002 seconds
include potential.mod
# NOTE: This script can be modified for different pair styles
# See in.elastic for more info.

# we must undefine any fix ave/* fix before using reset_timestep
if "$(is_defined(fix,avp))" then "unfix avp"
reset_timestep 0

newton off

# Choose potential
# pair_style	sw
# pair_coeff * * Si.sw Si
pair_style	nequip
pair_coeff	* * tob14_l3-deployed.pth Ca Si O H

atom_modify sort 0 0.0
#kspace_style	ewald 1.0e-6# Setup neighbor style

neighbor 2.0 bin
neigh_modify once no every 1 delay 0 check yes



# Setup output

fix avp all ave/time  ${nevery} ${nrepeat} ${nfreq} c_thermo_press mode vector
fix avp all ave/time  10 ${nrepeat} ${nfreq} c_thermo_press mode vector
fix avp all ave/time  10 10 ${nfreq} c_thermo_press mode vector
fix avp all ave/time  10 10 100 c_thermo_press mode vector

#min_style cg
#minimize 1.0e-15 1.0e-15 100000 100000 #设置能量最小化

thermo		${nthermo}
thermo		100
thermo_style custom step temp pe press f_avp[1] f_avp[2] f_avp[3] f_avp[4] f_avp[5] f_avp[6]
thermo_modify norm no

# Setup MD

timestep ${timestep}
timestep 0.0001
fix 4 all nve
if "${thermostat} == 1" then    "fix 5 all langevin ${temp} ${temp} ${tdamp} ${seed}"
fix 5 all langevin ${temp} ${temp} ${tdamp} ${seed}
fix 5 all langevin 300 ${temp} ${tdamp} ${seed}
fix 5 all langevin 300 300 ${tdamp} ${seed}
fix 5 all langevin 300 300 0.01 ${seed}
fix 5 all langevin 300 300 0.01 123457



# Positive deformation

variable delta equal ${up}*${len0}
variable delta equal 0.02*${len0}
variable delta equal 0.02*6.17924860419115
variable deltaxy equal ${up}*xy
variable deltaxy equal 0.02*xy
variable deltaxz equal ${up}*xz
variable deltaxz equal 0.02*xz
variable deltayz equal ${up}*yz
variable deltayz equal 0.02*yz
if "${dir} == 1" then    "change_box all x delta 0 ${delta} xy delta ${deltaxy} xz delta ${deltaxz} remap units box"
if "${dir} == 2" then    "change_box all y delta 0 ${delta} yz delta ${deltayz} remap units box"
if "${dir} == 3" then    "change_box all z delta 0 ${delta} remap units box"
if "${dir} == 4" then    "change_box all yz delta ${delta} remap units box"
if "${dir} == 5" then    "change_box all xz delta ${delta} remap units box"
if "${dir} == 6" then    "change_box all xy delta ${delta} remap units box"
change_box all xy delta ${delta} remap units box
change_box all xy delta 0.123584972083823 remap units box
Changing box ...
  triclinic box = (0.095103223 0.086882847 0.38870770) to (6.8589983 6.2661315 28.034228) with tilt (2.6819956 0.52556074 1.3547112)

# Run MD

run ${nequil}
run 1000
Neighbor list info ...
  update every 1 steps, delay 0 steps, check yes
  max neighbors/atom: 2000, page size: 100000
  master list distance cutoff = 6
  ghost atom cutoff = 6
  binsize = 3, bins = 4 3 10
  1 neighbor lists, perpetual/occasional/extra = 1 0 0
  (1) pair nequip, perpetual
      attributes: full, newton off
      pair build: full/bin/atomonly
      stencil: full/bin/3d
      bin: standard
Per MPI rank memory allocation (min/avg/max) = 2.973 | 2.973 | 2.973 Mbytes
Step Temp PotEng Press f_avp[1] f_avp[2] f_avp[3] f_avp[4] f_avp[5] f_avp[6] 
       0    276.56993   -661.13867    8409.2529            0            0            0            0            0            0 
     100    258.05203   -661.10254    11162.173    4203.0614    7591.7106    12043.704   -4449.4444    5554.0492   -5579.0741 
     200    260.70276   -660.57867    12035.359    11263.131    7952.0499    10308.061    236.90548    6680.0034   -6721.9645 
     300    245.89936   -660.29834    12182.928    11628.027    1853.0051    16782.455    536.45245    5678.0954   -5381.4728 
     400    330.53163   -660.18311    16272.167    9979.1259    12132.085    20560.096    2866.6224    3751.7258   -7284.3562 
     500    292.34396   -660.32135    13951.784     10430.42    16573.747    15288.567    1436.7721    6983.8572   -6289.0083 
     600    303.63202   -660.37921    12940.414    8028.9061    5724.7108    19716.703    1589.0358    11126.743   -4148.4864 
     700    326.53728   -660.63733    15590.342    16011.601    11995.299    24668.264    1237.7218    4422.3277   -4699.4127 
     800    309.75892   -660.83478     10658.16    6654.3659    8058.6135    23260.565    1506.1332    3677.2781    -6759.002 
     900    336.16419   -660.71613    5651.5698   -3007.1578    2077.2807    13285.185   -2265.6243    10145.905   -2743.9403 
    1000    320.11023   -660.78119    15417.562    375.14555   -443.81111    18970.691   -3300.5617    7508.0152    2752.9628 
Loop time of 246.936 on 1 procs for 1000 steps with 104 atoms

Performance: 0.035 ns/day, 685.933 hours/ns, 4.050 timesteps/s
99.9% CPU use with 1 MPI tasks x 1 OpenMP threads

MPI task timing breakdown:
Section |  min time  |  avg time  |  max time  |%varavg| %total
---------------------------------------------------------------
Pair    | 246.91     | 246.91     | 246.91     |   0.0 | 99.99
Neigh   | 0          | 0          | 0          |   0.0 |  0.00
Comm    | 0.0064273  | 0.0064273  | 0.0064273  |   0.0 |  0.00
Output  | 0.00065947 | 0.00065947 | 0.00065947 |   0.0 |  0.00
Modify  | 0.016088   | 0.016088   | 0.016088   |   0.0 |  0.01
Other   |            | 0.003099   |            |       |  0.00

Nlocal:        104.000 ave         104 max         104 min
Histogram: 1 0 0 0 0 0 0 0 0 0
Nghost:        1226.00 ave        1226 max        1226 min
Histogram: 1 0 0 0 0 0 0 0 0 0
Neighs:         0.00000 ave           0 max           0 min
Histogram: 1 0 0 0 0 0 0 0 0 0
FullNghs:      8248.00 ave        8248 max        8248 min
Histogram: 1 0 0 0 0 0 0 0 0 0

Total # of neighbors = 8248
Ave neighs/atom = 79.307692
Neighbor list builds = 0
Dangerous builds = 0
include potential.mod
# NOTE: This script can be modified for different pair styles
# See in.elastic for more info.

# we must undefine any fix ave/* fix before using reset_timestep
if "$(is_defined(fix,avp))" then "unfix avp"
unfix avp
reset_timestep 0

newton off

# Choose potential
# pair_style	sw
# pair_coeff * * Si.sw Si
pair_style	nequip
pair_coeff	* * tob14_l3-deployed.pth Ca Si O H

atom_modify sort 0 0.0
#kspace_style	ewald 1.0e-6# Setup neighbor style

neighbor 2.0 bin
neigh_modify once no every 1 delay 0 check yes



# Setup output

fix avp all ave/time  ${nevery} ${nrepeat} ${nfreq} c_thermo_press mode vector
fix avp all ave/time  10 ${nrepeat} ${nfreq} c_thermo_press mode vector
fix avp all ave/time  10 10 ${nfreq} c_thermo_press mode vector
fix avp all ave/time  10 10 100 c_thermo_press mode vector

#min_style cg
#minimize 1.0e-15 1.0e-15 100000 100000 #设置能量最小化

thermo		${nthermo}
thermo		100
thermo_style custom step temp pe press f_avp[1] f_avp[2] f_avp[3] f_avp[4] f_avp[5] f_avp[6]
WARNING: New thermo_style command, previous thermo_modify settings will be lost (src/output.cpp:689)
thermo_modify norm no

# Setup MD

timestep ${timestep}
timestep 0.0001
fix 4 all nve
if "${thermostat} == 1" then    "fix 5 all langevin ${temp} ${temp} ${tdamp} ${seed}"
fix 5 all langevin ${temp} ${temp} ${tdamp} ${seed}
fix 5 all langevin 300 ${temp} ${tdamp} ${seed}
fix 5 all langevin 300 300 ${tdamp} ${seed}
fix 5 all langevin 300 300 0.01 ${seed}
fix 5 all langevin 300 300 0.01 123457


run ${nrun}
run 300
Per MPI rank memory allocation (min/avg/max) = 2.973 | 2.973 | 2.973 Mbytes
Step Temp PotEng Press f_avp[1] f_avp[2] f_avp[3] f_avp[4] f_avp[5] f_avp[6] 
       0    320.11023   -660.78125    15417.561            0            0            0            0            0            0 
     100    251.15451   -660.89337    15246.008    9800.4085    6781.0449    19713.034   -449.80882    5426.7695   -5156.8762 
     200    264.00606   -660.67548    15329.642    14567.318    11691.734    16375.068   -3304.6397    5204.4406    -8799.896 
     300    255.83597   -660.44006     14915.79    12595.617    8394.7557    22539.295   -3768.6229    6922.0872   -5341.4678 
Loop time of 78.0552 on 1 procs for 300 steps with 104 atoms

Performance: 0.033 ns/day, 722.733 hours/ns, 3.843 timesteps/s
99.9% CPU use with 1 MPI tasks x 1 OpenMP threads

MPI task timing breakdown:
Section |  min time  |  avg time  |  max time  |%varavg| %total
---------------------------------------------------------------
Pair    | 78.047     | 78.047     | 78.047     |   0.0 | 99.99
Neigh   | 0          | 0          | 0          |   0.0 |  0.00
Comm    | 0.0019815  | 0.0019815  | 0.0019815  |   0.0 |  0.00
Output  | 0.00016618 | 0.00016618 | 0.00016618 |   0.0 |  0.00
Modify  | 0.0048993  | 0.0048993  | 0.0048993  |   0.0 |  0.01
Other   |            | 0.000977   |            |       |  0.00

Nlocal:        104.000 ave         104 max         104 min
Histogram: 1 0 0 0 0 0 0 0 0 0
Nghost:        1207.00 ave        1207 max        1207 min
Histogram: 1 0 0 0 0 0 0 0 0 0
Neighs:         0.00000 ave           0 max           0 min
Histogram: 1 0 0 0 0 0 0 0 0 0
FullNghs:      8246.00 ave        8246 max        8246 min
Histogram: 1 0 0 0 0 0 0 0 0 0

Total # of neighbors = 8246
Ave neighs/atom = 79.288462
Neighbor list builds = 0
Dangerous builds = 0

# Obtain new stress tensor

variable pxx1 equal f_avp[1]
variable pyy1 equal f_avp[2]
variable pzz1 equal f_avp[3]
variable pxy1 equal f_avp[4]
variable pxz1 equal f_avp[5]
variable pyz1 equal f_avp[6]

# Compute elastic constant from pressure tensor

variable C1pos equal ${d1}
variable C1pos equal -28.829303579323
variable C2pos equal ${d2}
variable C2pos equal -27.9415326691384
variable C3pos equal ${d3}
variable C3pos equal -58.9555589923315
variable C4pos equal ${d4}
variable C4pos equal 11.1231168504112
variable C5pos equal ${d5}
variable C5pos equal 0.27487016688825
variable C6pos equal ${d6}
variable C6pos equal 49.2947407799262

# Combine positive and negative

variable C1${dir} equal 0.5*(${C1neg}+${C1pos})
variable C16 equal 0.5*(${C1neg}+${C1pos})
variable C16 equal 0.5*(18.678708507257+${C1pos})
variable C16 equal 0.5*(18.678708507257+-28.829303579323)
variable C2${dir} equal 0.5*(${C2neg}+${C2pos})
variable C26 equal 0.5*(${C2neg}+${C2pos})
variable C26 equal 0.5*(8.80128126264825+${C2pos})
variable C26 equal 0.5*(8.80128126264825+-27.9415326691384)
variable C3${dir} equal 0.5*(${C3neg}+${C3pos})
variable C36 equal 0.5*(${C3neg}+${C3pos})
variable C36 equal 0.5*(37.918419003455+${C3pos})
variable C36 equal 0.5*(37.918419003455+-58.9555589923315)
variable C4${dir} equal 0.5*(${C4neg}+${C4pos})
variable C46 equal 0.5*(${C4neg}+${C4pos})
variable C46 equal 0.5*(-13.352872939895+${C4pos})
variable C46 equal 0.5*(-13.352872939895+11.1231168504112)
variable C5${dir} equal 0.5*(${C5neg}+${C5pos})
variable C56 equal 0.5*(${C5neg}+${C5pos})
variable C56 equal 0.5*(-2.44092093282765+${C5pos})
variable C56 equal 0.5*(-2.44092093282765+0.27487016688825)
variable C6${dir} equal 0.5*(${C6neg}+${C6pos})
variable C66 equal 0.5*(${C6neg}+${C6pos})
variable C66 equal 0.5*(30.3129119191536+${C6pos})
variable C66 equal 0.5*(30.3129119191536+49.2947407799262)

# Delete dir to make sure it is not reused

variable dir delete

# Output final values

variable C11all equal ${C11}
variable C11all equal 104.659513408121
variable C22all equal ${C22}
variable C22all equal 106.137326489846
variable C33all equal ${C33}
variable C33all equal 81.9907998252801

variable C12all equal 0.5*(${C12}+${C21})
variable C12all equal 0.5*(41.5904324468226+${C21})
variable C12all equal 0.5*(41.5904324468226+42.9289585988696)
variable C13all equal 0.5*(${C13}+${C31})
variable C13all equal 0.5*(27.4608066231848+${C31})
variable C13all equal 0.5*(27.4608066231848+31.0428855265803)
variable C23all equal 0.5*(${C23}+${C32})
variable C23all equal 0.5*(32.6549774759828+${C32})
variable C23all equal 0.5*(32.6549774759828+33.7872344522468)

variable C44all equal ${C44}
variable C44all equal 31.2483059257515
variable C55all equal ${C55}
variable C55all equal 24.5877316042051
variable C66all equal ${C66}
variable C66all equal 39.8038263495399

variable C14all equal 0.5*(${C14}+${C41})
variable C14all equal 0.5*(-0.738598790686451+${C41})
variable C14all equal 0.5*(-0.738598790686451+0.1981080549291)
variable C15all equal 0.5*(${C15}+${C51})
variable C15all equal 0.5*(1.4486436310095+${C51})
variable C15all equal 0.5*(1.4486436310095+2.42386502258571)
variable C16all equal 0.5*(${C16}+${C61})
variable C16all equal 0.5*(-5.075297536033+${C61})
variable C16all equal 0.5*(-5.075297536033+-5.03718605640865)

variable C24all equal 0.5*(${C24}+${C42})
variable C24all equal 0.5*(3.27521327807345+${C42})
variable C24all equal 0.5*(3.27521327807345+3.2702838735067)
variable C25all equal 0.5*(${C25}+${C52})
variable C25all equal 0.5*(1.36838057791105+${C52})
variable C25all equal 0.5*(1.36838057791105+2.61933402464193)
variable C26all equal 0.5*(${C26}+${C62})
variable C26all equal 0.5*(-9.57012570324508+${C62})
variable C26all equal 0.5*(-9.57012570324508+-10.0886650794777)

variable C34all equal 0.5*(${C34}+${C43})
variable C34all equal 0.5*(-0.350590383834+${C43})
variable C34all equal 0.5*(-0.350590383834+0.49518670750195)
variable C35all equal 0.5*(${C35}+${C53})
variable C35all equal 0.5*(3.950427685011+${C53})
variable C35all equal 0.5*(3.950427685011+4.53224576651782)
variable C36all equal 0.5*(${C36}+${C63})
variable C36all equal 0.5*(-10.5185699944382+${C63})
variable C36all equal 0.5*(-10.5185699944382+-7.92507472635013)

variable C45all equal 0.5*(${C45}+${C54})
variable C45all equal 0.5*(-11.8012796181445+${C54})
variable C45all equal 0.5*(-11.8012796181445+-11.7599723290595)
variable C46all equal 0.5*(${C46}+${C64})
variable C46all equal 0.5*(-1.1148780447419+${C64})
variable C46all equal 0.5*(-1.1148780447419+-0.72786648235353)
variable C56all equal 0.5*(${C56}+${C65})
variable C56all equal 0.5*(-1.0830253829697+${C65})
variable C56all equal 0.5*(-1.0830253829697+0.411722639378794)


print "========================================="
=========================================
print "Components of the Elastic Constant Tensor"
Components of the Elastic Constant Tensor
print "========================================="
=========================================

print "Elastic Constant C11all = ${C11all} ${cunits}"
Elastic Constant C11all = 104.659513408121 GPa
print "Elastic Constant C22all = ${C22all} ${cunits}"
Elastic Constant C22all = 106.137326489846 GPa
print "Elastic Constant C33all = ${C33all} ${cunits}"
Elastic Constant C33all = 81.9907998252801 GPa

print "Elastic Constant C12all = ${C12all} ${cunits}"
Elastic Constant C12all = 42.2596955228461 GPa
print "Elastic Constant C13all = ${C13all} ${cunits}"
Elastic Constant C13all = 29.2518460748826 GPa
print "Elastic Constant C23all = ${C23all} ${cunits}"
Elastic Constant C23all = 33.2211059641148 GPa

print "Elastic Constant C44all = ${C44all} ${cunits}"
Elastic Constant C44all = 31.2483059257515 GPa
print "Elastic Constant C55all = ${C55all} ${cunits}"
Elastic Constant C55all = 24.5877316042051 GPa
print "Elastic Constant C66all = ${C66all} ${cunits}"
Elastic Constant C66all = 39.8038263495399 GPa

print "Elastic Constant C14all = ${C14all} ${cunits}"
Elastic Constant C14all = -0.270245367878675 GPa
print "Elastic Constant C15all = ${C15all} ${cunits}"
Elastic Constant C15all = 1.9362543267976 GPa
print "Elastic Constant C16all = ${C16all} ${cunits}"
Elastic Constant C16all = -5.05624179622083 GPa

print "Elastic Constant C24all = ${C24all} ${cunits}"
Elastic Constant C24all = 3.27274857579008 GPa
print "Elastic Constant C25all = ${C25all} ${cunits}"
Elastic Constant C25all = 1.99385730127649 GPa
print "Elastic Constant C26all = ${C26all} ${cunits}"
Elastic Constant C26all = -9.82939539136139 GPa

print "Elastic Constant C34all = ${C34all} ${cunits}"
Elastic Constant C34all = 0.072298161833975 GPa
print "Elastic Constant C35all = ${C35all} ${cunits}"
Elastic Constant C35all = 4.24133672576441 GPa
print "Elastic Constant C36all = ${C36all} ${cunits}"
Elastic Constant C36all = -9.22182236039417 GPa

print "Elastic Constant C45all = ${C45all} ${cunits}"
Elastic Constant C45all = -11.780625973602 GPa
print "Elastic Constant C46all = ${C46all} ${cunits}"
Elastic Constant C46all = -0.921372263547715 GPa
print "Elastic Constant C56all = ${C56all} ${cunits}"
Elastic Constant C56all = -0.335651371795453 GPa

print " "
 
print "Cij tensor matrix"
Cij tensor matrix
print " "
 
print "${C11all}  ${C12all}  ${C13all}  ${C14all}  ${C15all}  ${C16all}"
104.659513408121  42.2596955228461  29.2518460748826  -0.270245367878675  1.9362543267976  -5.05624179622083
print "${C12all}  ${C22all}  ${C23all}  ${C24all}  ${C25all}  ${C26all}"
42.2596955228461  106.137326489846  33.2211059641148  3.27274857579008  1.99385730127649  -9.82939539136139
print "${C13all}  ${C23all}  ${C33all}  ${C34all}  ${C35all}  ${C36all}"
29.2518460748826  33.2211059641148  81.9907998252801  0.072298161833975  4.24133672576441  -9.22182236039417
print "${C14all}  ${C24all}  ${C34all}  ${C44all}  ${C45all}  ${C46all}"
-0.270245367878675  3.27274857579008  0.072298161833975  31.2483059257515  -11.780625973602  -0.921372263547715
print "${C15all}  ${C25all}  ${C35all}  ${C45all}  ${C55all}  ${C56all}"
1.9362543267976  1.99385730127649  4.24133672576441  -11.780625973602  24.5877316042051  -0.335651371795453
print "${C16all}  ${C26all}  ${C36all}  ${C46all}  ${C56all}  ${C66all}"
-5.05624179622083  -9.82939539136139  -9.22182236039417  -0.921372263547715  -0.335651371795453  39.8038263495399

print "${C11all}  ${C12all}  ${C13all}  ${C14all}  ${C15all}  ${C16all}" file Cij.dat screen no
print "${C12all}  ${C22all}  ${C23all}  ${C24all}  ${C25all}  ${C26all}" append Cij.dat screen no
print "${C13all}  ${C23all}  ${C33all}  ${C34all}  ${C35all}  ${C36all}" append Cij.dat screen no
print "${C14all}  ${C24all}  ${C34all}  ${C44all}  ${C45all}  ${C46all}" append Cij.dat screen no
print "${C15all}  ${C25all}  ${C35all}  ${C45all}  ${C55all}  ${C56all}" append Cij.dat screen no
print "${C16all}  ${C26all}  ${C36all}  ${C46all}  ${C56all}  ${C66all}" append Cij.dat screen no

write_restart restart2
System init for write_restart ...
Total wall time: 1:55:03
