ITEM: TIMESTEP
5204
ITEM: NUMBER OF ATOMS
62
ITEM: BOX BOUNDS xy xz yz pp pp pp
-4.1198330484007839e-01 1.1199788832675907e+01 -1.7310392834674893e-01
-1.9081418109574046e+00 7.4281100416659402e+00 -1.5405877443244065e-01
-1.5890353927092704e-02 9.3905889486431526e+00 -1.9313873306090124e+00
ITEM: ATOMS id type x y z fx fy fz
35 3 3.14863 1.00196 1.0559 0.589301 0.36535 -0.0265047
25 3 0.269754 1.00106 1.54122 -0.497306 -0.172927 0.0533238
44 3 5.84733 0.934379 1.41642 0.8219 -0.46336 -0.225811
22 4 10.052 0.741111 2.02525 -0.694441 0.0568846 0.416138
53 3 8.75235 0.980539 1.06085 1.28622 0.245603 0.522768
2 1 1.52991 2.90546 1.15122 -0.00264221 -0.36254 -0.111042
16 4 4.42284 1.23323 2.04875 -0.690664 0.849172 -1.35207
40 3 4.46117 2.87634 2.54458 -0.345269 -0.559785 0.264844
7 1 7.32444 2.73431 1.47518 -0.383538 0.467162 -1.08549
3 1 1.68423 6.51638 1.28949 -0.114757 0.647051 -0.185357
26 3 0.155668 4.92155 1.28806 2.35078 -0.773973 -0.908459
34 3 3.16653 4.72373 1.06072 -1.16451 0.0598019 -0.707611
15 4 4.45578 4.41868 1.89661 0.717785 -0.428325 1.41919
8 1 7.20601 6.48334 1.44142 0.0299499 -0.164642 -0.611069
43 3 5.8522 4.63414 1.23332 1.11599 0.382758 -0.564562
21 4 10.0762 4.9719 2.00809 -1.85686 -0.202983 -0.251257
52 3 8.83677 4.49349 1.09915 0.00934235 -0.282046 0.231089
58 3 9.68386 6.51668 2.47648 0.231758 0.666388 0.698775
37 3 4.05072 -0.964764 5.81154 0.185731 0.649209 -1.30435
38 3 4.17498 0.474609 3.44865 0.14446 -0.813146 2.10632
46 3 6.18667 0.0204053 5.9427 -0.892058 0.155397 0.483961
60 2 5.02007 -0.477596 5.90741 0.863351 0.142118 -0.383707
14 4 3.6146 -0.899386 4.19401 1.07273 0.00676297 -1.07168
1 1 11.1581 -0.641888 4.4339 -0.202607 0.102058 0.861089
54 3 8.82262 -0.868247 5.53821 1.90063 0.637911 0.993127
13 4 1.57785 2.69998 5.17073 -0.0400569 0.956434 0.254581
28 3 0.541 3.87508 5.95374 -0.326663 -0.45112 -0.156046
29 3 0.837579 1.30486 5.69117 -0.0703165 -0.872235 0.998741
30 3 1.10888 3.05058 3.59193 0.763916 -0.0427817 0.388726
36 3 3.13718 2.8205 5.59498 -1.04449 0.133229 -0.383505
59 2 0.252884 3.66849 3.52092 -1.05374 -0.137962 0.358442
6 1 5.40027 3.1533 4.68394 -0.213604 0.114968 0.197856
20 4 9.2115 2.87138 4.15156 0.296219 1.00499 0.391151
49 3 7.67201 3.03797 3.69526 0.70186 0.0638818 0.61594
55 3 9.6055 3.19152 5.73457 0.519094 -0.651159 -0.277752
56 3 9.82652 1.4242 3.63476 0.35472 -0.312571 -1.39709
57 3 10.2948 4.23016 3.51792 -0.103061 -1.24955 -0.277406
62 2 10.7069 3.51851 5.81249 -0.555313 -0.108318 0.00347556
31 3 1.96209 6.29954 3.7227 -1.20592 -0.352636 0.321788
61 2 5.64202 5.84166 3.61012 0.753919 -0.408612 -0.3313
39 3 4.46333 5.21684 3.4497 0.782709 1.72871 0.907263
47 3 6.61133 4.86354 5.96904 0.26363 1.43258 -1.97526
48 3 6.69189 6.26302 3.71747 -2.04097 -0.861025 0.214139
19 4 7.14415 6.31157 5.32707 -1.39466 -1.27528 -1.36142
12 4 0.665294 0.545966 7.27469 1.27434 -0.0607707 0.296669
27 3 0.741597 -1.05307 6.70765 -0.0486719 0.664158 -0.865659
32 3 1.97992 0.756898 8.2537 -0.975413 0.481625 -0.790346
4 1 3.79001 -1.062 8.07917 -1.16115 -0.251023 1.26165
17 4 6.26848 0.982025 7.35975 0.646855 1.16674 0.146051
41 3 4.91005 0.898931 8.16529 -0.659993 0.035666 -0.287705
24 3 10.523 0.756608 8.01277 0.74152 0.569863 -0.608431
9 1 9.0308 -0.98629 8.08997 0.446039 -0.644278 -0.166924
50 3 7.56183 0.633361 8.22019 0.174163 0.441859 0.0996095
5 1 3.49046 2.73978 8.06989 -0.647847 -0.103963 -0.220531
18 4 6.41818 4.12534 7.39085 -0.073596 -0.682833 0.458445
45 3 6.49805 2.55451 6.71315 -0.29036 -0.841137 0.42704
10 1 9.25513 2.70597 8.14144 -0.671823 -0.211773 0.217346
51 3 7.5793 4.45781 8.41594 0.558986 -0.328834 0.554283
11 4 0.513302 4.83729 7.36407 0.549752 -0.295363 0.881269
33 3 1.86205 4.51209 8.18917 0.327159 0.200792 0.176941
42 3 4.95661 4.49424 7.86259 -1.21765 -0.298789 0.594015
23 3 10.4258 4.64215 8.15373 0.165168 0.236629 0.0723056
