ITEM: TIMESTEP
15526
ITEM: NUMBER OF ATOMS
88
ITEM: BOX BOUNDS xy xz yz pp pp pp
-3.1536627472128931e-02 9.8143675809115631e+00 2.6815750106765548e+00
-2.9265336549240972e-01 6.2044136276775959e+00 2.9755594276289832e-01
-1.3439124471776154e-01 2.2539837601717672e+01 -2.7305471181484231e-01
ITEM: ATOMS id type x y z fx fy fz
80 2 2.57486 3.15328 1.89037 -0.0121389 -0.909473 0.860061
38 3 2.67013 2.25008 2.41185 -1.73049 0.11985 -0.720784
5 4 1.18463 1.44852 2.03014 1.76087 0.863166 -0.444188
28 3 1.14229 1.16515 0.437255 -0.19256 -0.148289 1.59191
16 3 4.60698 1.33943 -0.0315462 -0.980369 1.60431 1.60267
59 2 4.44606 0.884118 0.822371 0.102506 -0.0793056 0.0368026
20 3 6.77971 2.40029 2.3354 -0.718472 0.501128 0.17983
64 2 3.01112 5.05076 1.45546 -0.617005 -0.268743 -0.278589
23 3 2.14672 4.62833 1.1913 0.47147 0.675812 0.43283
73 2 6.36864 3.89644 0.935421 0.00988817 -0.238575 0.101283
44 3 5.92354 4.61228 0.440398 0.495219 0.500776 0.75376
30 3 1.08321 0.0269642 2.77713 0.705357 0.232081 0.31249
62 2 8.35626 5.22726 1.79085 0.172076 -0.551166 0.161642
76 2 6.63453 5.43939 2.51055 -0.0790383 0.25297 0.097853
51 3 7.46614 5.9119 2.71803 0.167563 -0.0881681 -0.649724
85 1 2.51796 2.47297 5.14093 0.677768 0.26673 -0.857315
3 4 6.03183 2.84938 3.74992 -1.14443 -0.429391 -1.37216
15 3 5.00651 1.61373 4.16031 -0.0712353 0.202791 -0.370434
58 2 4.95193 0.927997 3.34099 -0.467321 0.0870873 0.130598
48 3 7.0908 3.02734 4.83488 1.87441 0.517346 1.8648
24 3 2.86858 4.82351 4.76026 1.25073 -0.384204 -0.229812
39 3 5.17405 4.20204 3.49668 0.594082 -1.04939 -0.820471
6 4 4.2802 5.38975 4.14693 -2.5449 -0.0863853 0.697124
36 3 2.49351 -0.0198937 5.20449 0.344881 0.716266 -0.987653
87 1 7.67663 5.62059 5.12191 -0.0973251 -0.368888 -0.296335
9 4 3.18389 2.9324 8.06439 -1.49475 -0.266765 0.833143
31 3 2.14148 1.92098 7.27509 0.638768 0.62356 0.915497
29 3 4.39265 3.46485 7.19979 0.511743 -0.708834 -1.10387
81 1 6.49554 2.59265 7.0526 0.560434 -0.0796574 0.305002
55 3 2.34709 4.31225 8.49646 -0.718438 0.576253 0.276107
83 1 4.71677 5.7308 7.29795 -0.917702 0.482865 0.718873
45 3 6.80465 4.856 7.33271 1.38093 0.513699 -0.228202
18 3 6.26217 0.333868 7.01781 -0.330826 -0.591232 -0.0957863
11 4 8.16263 5.50471 7.95954 0.0456196 0.303365 1.47767
50 3 4.98399 0.0851903 9.35325 0.357939 -0.316563 0.130318
32 3 1.42989 0.730207 12.7937 0.39696 1.03683 0.0209465
43 3 3.67478 2.3847 9.55742 0.823324 -0.697952 0.471734
19 3 6.43963 2.33043 9.6666 -0.421993 -1.48302 -0.838589
75 2 6.55407 3.09587 10.2261 0.238358 1.33423 1.15068
1 4 5.01743 1.53199 10.0812 -1.16315 0.236532 -0.828625
14 3 4.88448 1.28947 11.6881 0.0304855 0.161437 0.74569
66 2 2.31681 4.36241 10.6444 0.353897 -0.447897 0.0644371
26 3 2.72322 4.48512 11.5385 0.861571 -0.671114 -1.40619
78 2 6.04912 4.53816 12.4227 0.518248 -0.115662 -1.2274
77 2 6.0369 5.02751 10.8969 0.117522 0.019432 0.605433
49 3 6.53001 4.44345 11.5395 -0.927904 0.134236 0.528969
33 3 4.61984 5.94004 10.0159 -0.244811 0.679741 0.341011
70 2 1.85375 0.633231 10.4062 0.189151 -0.791373 -0.357868
67 2 3.97662 5.42865 10.5854 -0.0495668 -0.0232689 -0.021869
61 2 8.91911 5.02909 11.9256 -1.12964 0.962476 1.21093
69 2 2.16703 1.3704 12.9633 -0.120776 -0.257217 -0.104649
10 4 3.1179 2.50213 15.5227 -0.459161 -1.2335 -1.43476
37 3 2.08832 1.47089 16.1827 -0.0502544 -0.110204 0.556176
21 3 6.31211 2.31723 13.7847 0.351104 -0.630625 -0.299097
46 3 3.64749 1.88232 14.0086 0.615851 0.0416992 -0.363151
2 4 5.05324 1.32502 13.3246 -0.311335 -0.397512 0.322975
68 2 7.16833 1.90035 13.3888 -0.794697 0.0216943 0.367652
56 3 2.2676 3.86029 15.1219 0.21195 0.0110672 -0.846336
65 2 3.95039 4.56826 14.2135 0.979207 0.479365 -0.292301
63 2 5.99693 4.75144 14.9479 -0.319998 0.299348 -1.05417
71 2 1.71883 0.00525643 13.4827 -0.13125 -0.462251 -0.0464215
35 3 4.80016 5.10538 14.2573 -1.03512 -0.592197 -0.201709
47 3 6.72145 4.74144 15.6556 0.356088 -0.502788 1.46563
12 4 8.24281 5.2063 15.2433 -0.0864377 0.711167 0.0527331
53 3 5.31972 -0.255998 13.8026 0.240568 0.935721 -0.558535
86 1 3.36393 2.22283 18.614 0.0515559 -0.251863 -0.268985
13 3 4.39954 2.87318 16.3576 0.687644 0.336668 1.10312
82 1 6.6756 2.11419 16.5203 -0.182099 0.526157 0.0620926
17 3 5.48915 1.51043 18.9448 1.53582 0.361241 -0.052388
52 3 7.65818 3.10103 18.555 0.834556 -0.367566 -0.0767328
27 3 3.59784 4.63898 18.7206 0.174962 -0.275686 -0.0276333
41 3 5.93111 5.89874 18.7307 0.655988 1.26784 -1.36193
84 1 4.37277 5.38485 16.5707 0.388917 0.42656 0.579213
22 3 6.31487 -0.0897105 16.3127 -0.452051 -0.558305 0.0451946
88 1 8.29462 5.3777 18.7158 -0.673957 0.481549 0.138331
42 3 2.96009 2.05915 21.2634 -1.33002 0.28674 -0.979122
7 4 1.61515 1.11019 21.5579 1.09852 -0.122097 -0.7198
74 2 3.70479 1.70394 21.794 0.794314 -0.309373 0.473716
57 2 5.37979 0.482068 22.0783 1.23658 -1.45058 -1.35764
4 4 6.62899 2.50591 19.6233 -3.35481 0.909984 -0.0139766
25 3 7.18719 1.81711 20.9887 -0.261121 0.424758 0.00298422
60 2 8.85294 4.57167 21.7296 -0.211927 0.0475997 -0.0202688
72 2 5.72631 3.87461 22.4379 -0.659598 -0.397546 -1.0521
40 3 5.64809 3.78349 20.309 0.695548 -1.36124 -0.505765
8 4 4.91052 5.07498 19.5938 -0.493432 -0.942261 0.778214
34 3 4.40267 5.86031 20.9482 -0.128839 0.0275772 0.193433
54 3 8.10716 4.94226 21.2051 0.0306821 0.447194 0.577402
79 2 7.33 4.9354 21.8574 0.519325 -0.630776 -0.565615
