ITEM: TIMESTEP
242
ITEM: NUMBER OF ATOMS
104
ITEM: BOX BOUNDS xy xz yz pp pp pp
0.0000000000000000e+00 1.0124796696170293e+01 2.6303552510961419e+00
0.0000000000000000e+00 7.7458211072710021e+00 5.4033995252876998e-01
0.0000000000000000e+00 2.8422935658694676e+01 1.3928068087879120e+00
ITEM: ATOMS id type x y z fx fy fz
1 1 7.45863 6.76752 14.2211 0.000164588 -0.00163261 0.00344382
2 1 7.36237 6.65254 22.047 -0.000808844 0.000958137 0.00194007
3 1 3.34414 5.62918 7.86658 -0.00178159 0.00213251 0.00174682
4 1 2.47086 3.37567 22.1624 -0.00167779 -0.000691119 0.00190066
5 1 3.89938 6.5894 20.2072 0.00117468 0.00329306 0.0020198
6 1 5.41689 2.39093 7.82705 0.000528794 -0.00109161 0.00142129
7 1 6.22835 3.6624 28.3928 0.000996315 -0.00235906 0.0010147
8 1 6.80321 5.60239 5.89796 0.00019873 0.00110707 0.00111027
9 1 6.18017 3.51339 20.0545 0.00130032 0.000975512 -0.00135916
10 1 2.07766 2.49376 5.88544 -0.00125308 0.000453131 0.00153329
11 2 3.69961 1.28237 10.9543 0.00886545 0.00953775 0.00420828
12 2 7.23781 6.97607 18.9796 -0.00932539 0.0244754 -0.00424606
13 2 9.16691 5.60099 16.9934 0.00461436 -0.00230507 -0.00869511
14 2 3.22682 5.9193 4.75346 0.00107493 0.00259543 -0.00203302
15 2 2.90479 3.26727 19.0105 -0.0115849 0.00455891 -0.0028189
16 2 4.04347 6.30223 23.2779 0.00640125 0.000363906 -0.000499269
17 2 5.15353 4.4779 2.70685 -0.00488692 -0.00540659 0.00823387
18 2 5.7896 2.19058 4.74713 0.00819264 0.000339058 0.00327579
19 2 5.77648 3.6824 23.1589 -0.000820665 -0.00262644 0.00174188
20 2 6.9659 5.29774 8.98456 0.0180811 -0.0020893 -0.00831324
21 2 7.64137 2.23718 25.2831 -0.010305 0.00442663 -0.00801629
22 2 1.75137 2.69127 8.9348 0.00947409 -0.00457742 0.00863635
23 3 3.64259 1.37659 12.556 -0.00226805 -0.0020885 -0.0161631
24 3 7.88689 6.25458 8.03997 -0.00575437 -0.000867338 -0.00189374
25 3 7.46165 6.7162 24.5077 -0.00622271 0.0031692 -0.00355773
26 3 7.75267 6.24329 17.5708 -0.00431565 -0.00350705 -0.00689452
27 3 2.2352 4.94901 5.59449 0.00281196 -0.00037079 -0.00481643
28 3 5.83871 1.10456 19.9362 0.00560885 -0.00299804 0.00447129
29 3 5.84493 0.394662 1.58773 0.00196418 -0.0039072 -0.00493525
30 3 6.6724 0.874239 4.14714 -0.00180646 -0.00222842 0.00216422
31 3 9.18424 5.61411 15.3909 -0.00348699 0.00358811 0.00951797
32 3 1.95741 3.20536 24.7146 0.00389438 0.00685763 -0.00282822
33 3 2.99829 3.20313 8.01198 0.0104248 0.000758845 -0.00428335
34 3 2.36781 4.06508 17.6199 0.00709017 -0.0112403 0.0103866
35 3 3.23462 5.90555 10.3419 0.00274507 0.0063923 -0.00260716
36 3 2.77053 5.77987 22.3909 -0.00942733 -0.00241364 -0.00568963
37 3 2.96617 4.07863 13.0001 0.00146549 0.00218486 -0.000385752
38 3 3.75257 5.11423 3.36586 -0.00124871 -0.00192933 0.000911419
39 3 3.34973 6.40823 28.3407 -0.0140195 -0.00972255 0.00186118
40 3 3.44864 6.53045 17.6818 -0.00487594 -0.00158017 -0.00418134
41 3 4.50538 1.66412 5.60713 -0.00465812 0.000364609 -0.00193929
42 3 3.8871 4.22125 19.8629 -0.00258871 -0.00305793 -0.00151028
43 3 4.46686 6.43431 5.66703 -0.00487665 -0.00212466 -0.00221901
44 3 3.57428 7.06074 24.691 0.00563285 0.00352512 0.00791943
45 3 3.77094 1.96773 18.359 0.0108341 -0.0145851 0.000479042
46 3 3.97243 2.62756 28.7224 0.00128581 0.000718947 0.000653906
47 3 5.08639 4.36263 1.10798 -0.000584675 7.08922e-05 -0.00819465
48 3 4.67166 2.39646 15.8082 -0.000852403 -0.00882226 0.00648897
49 3 5.31297 2.9608 3.34856 -0.00456971 0.0077003 -0.00746605
50 3 4.94491 2.20113 10.2913 -0.00648071 -0.00626439 0.000553562
51 3 5.66909 4.81132 8.11952 -0.00169316 -0.00333337 -0.000463006
52 3 4.96738 7.25788 22.3319 0.00334141 0.000262149 -0.000889207
53 3 4.76739 2.7254 22.3268 -5.24388e-05 -0.000118823 -0.0015272
54 3 5.36451 6.08026 15.3723 -0.00575798 -0.00108152 -0.00263361
55 3 4.91715 4.96682 23.8255 -0.000745756 -0.00273961 0.00126229
56 3 6.39305 5.43855 3.2985 0.0195092 0.00993018 -0.0141395
57 3 6.7203 3.14823 5.66789 -0.00360318 0.00107793 -0.00227267
58 3 4.94045 4.67722 26.6335 0.00510889 -0.00307669 -0.00904016
59 3 6.53044 6.06708 10.4273 -0.00503322 0.0165019 0.0114103
60 3 6.24371 6.01107 19.8209 -0.00436269 -0.00584733 0.00564536
61 3 6.69011 1.88242 13.1893 9.73723e-05 -0.00662212 -0.00255496
62 3 6.32319 2.84503 24.492 0.00349707 0.00328668 0.00231827
63 3 6.82152 2.84994 17.5612 0.00164837 0.000558277 0.000412158
64 3 0.786732 1.70109 8.08463 -0.00607029 -0.00657147 -0.00377491
65 3 7.335 4.74763 12.786 0.00426501 -0.00463007 0.0102568
66 3 7.0111 4.19939 22.2206 -0.000660034 0.0023727 -0.00273899
67 3 8.04619 2.91516 0.665097 -0.00524752 -0.00098297 -0.00353356
68 3 7.81834 3.96642 9.53833 -0.0123418 0.0156462 0.00164122
69 3 7.42152 2.27472 26.869 -0.000112375 0.000662386 0.0113873
70 3 1.65461 2.72517 19.9047 0.00833524 0.00595436 -0.00538513
71 3 2.25956 2.73529 3.28582 -0.00068615 0.00840533 0.00153996
72 3 2.30652 1.86453 10.2884 0.00931324 -0.00190378 -0.00257785
73 4 3.26665 0.290587 0.493452 -0.00331125 -0.00831365 -0.00179748
74 4 4.22195 2.22541 16.6884 0.00309503 7.38361e-05 -0.00318285
75 4 1.59025 3.70996 0.329738 -0.00459056 -0.00502121 0.000712916
76 4 8.27849 4.42974 12.657 -0.00319933 0.00136658 -0.00102904
77 4 8.18357 6.12959 24.8026 0.000560033 -0.00422195 -0.000601277
78 4 5.18565 1.26927 24.664 0.00456843 0.00313276 -0.00122721
79 4 2.69495 3.63072 3.30255 -0.00119331 -0.0075815 -0.000328032
80 4 9.00315 6.02404 1.146 -0.00266579 -0.00143948 0.00372448
81 4 2.84801 4.38124 13.9334 -4.58621e-06 0.00173083 0.00169739
82 4 2.99532 2.13282 3.05411 0.00464035 -0.00705391 -0.00291272
83 4 7.60923 1.60024 13.0219 -0.00114065 -0.00111812 0.00409176
84 4 3.35432 7.2268 27.7343 -0.000133088 0.00727453 -0.00792156
85 4 3.20278 3.10544 12.9682 0.00108584 -0.000635736 -0.00249136
86 4 2.71893 3.28341 25.3167 0.00266562 0.00164599 0.00186063
87 4 3.43845 5.24778 11.0343 -0.000563632 0.000164791 0.00337326
88 4 2.54803 1.65674 0.19472 -0.00726098 -0.00368624 6.03001e-05
89 4 0.566011 1.14008 17.6019 0.000408083 0.00217125 0.00231089
90 4 3.71426 4.87808 0.367155 0.0099702 -0.00167334 0.00336994
91 4 3.83378 6.67315 10.4897 -0.00429046 0.00336654 -0.00136578
92 4 4.31594 3.24914 15.498 -0.00350287 0.0028363 -0.00321748
93 4 4.45317 6.04318 15.0059 0.00518189 0.00284746 0.00302004
94 4 4.30508 5.35814 26.9477 -0.000503048 -0.00323676 0.00796828
95 4 5.20572 6.23511 16.3268 0.000754987 1.67654e-05 0.00272343
96 4 5.7518 2.17989 10.8391 0.000985862 -0.00231424 -0.00196181
97 4 6.27429 0.586124 2.46565 0.00573228 0.00100006 0.00646315
98 4 5.04499 4.81959 25.6599 0.00185872 -0.000761356 0.0135099
99 4 7.04551 5.78827 2.64757 -0.0121045 -0.00718984 0.0133995
100 4 6.2156 2.87462 16.7821 0.00254675 -0.00208979 -0.00292459
101 4 6.72614 2.86929 13.1284 0.00404747 0.00602501 -0.00386953
102 4 7.0274 5.05444 11.8932 -0.00599401 -0.000406386 -0.00898567
103 4 7.64629 3.35052 17.3469 -0.000546707 0.00288729 -0.00108297
104 4 1.33493 2.86038 1.62493 -0.000190056 0.00239245 0.0101828
