ITEM: TIMESTEP
5206
ITEM: NUMBER OF ATOMS
88
ITEM: BOX BOUNDS xy xz yz pp pp pp
0.0000000000000000e+00 9.7624157930000006e+00 2.6646871069999998e+00
-2.6981789499999997e-01 6.1848149740000000e+00 2.9402868599999998e-01
0.0000000000000000e+00 2.2405446356999999e+01 -2.6981789499999997e-01
ITEM: ATOMS id type x y z fx fy fz
1 4 8.7586 4.62896 9.81803 0.416449 0.753826 1.63998
2 4 8.79179 4.35675 13.0441 0.943281 -1.65212 -0.0507521
3 4 3.23783 5.89892 3.75358 0.591307 0.79859 -0.13903
4 4 3.56691 5.6993 19.0967 0.460715 -0.133742 1.27217
5 4 5.21313 4.51918 1.80058 -0.485681 0.374033 1.14465
6 4 5.69459 2.22624 3.63207 1.57455 -0.186454 -0.801745
7 4 5.4424 4.2763 21.0519 0.577264 -0.100827 -0.579263
8 4 6.00371 2.06602 19.1236 -1.90566 -0.640181 0.563971
9 4 6.68433 5.97081 7.85948 -0.588206 -2.73741 -0.862936
10 4 6.88148 5.52505 15.0242 -2.1083 1.12665 -1.54773
11 4 2.32504 2.38712 7.83992 -0.984587 1.0286 -0.879076
12 4 2.53127 2.01498 14.961 -0.686341 -0.23064 -2.26012
13 3 5.45583 -0.139763 15.913 -0.149722 -0.777434 0.230729
14 3 8.76117 4.63798 11.4724 -0.28891 -0.271389 -2.59108
15 3 8.99088 5.04289 4.65027 0.649099 0.41412 -0.297431
16 3 8.53219 4.60897 22.1315 0.646408 -1.02857 -0.0751655
17 3 2.59869 4.73805 18.2689 -0.763755 -0.146405 -0.902541
18 3 3.25627 3.33325 6.8724 -0.852039 -0.388099 0.74793
19 3 3.34665 5.42463 9.32486 -0.349722 0.447325 0.115674
20 3 3.74234 5.00525 2.43941 0.727316 -0.590179 -0.134832
21 3 3.22731 5.23608 13.6331 0.521742 0.371583 0.282201
22 3 3.35606 3.02258 15.8977 -0.106428 -0.171825 0.366697
23 3 3.6189 1.18656 0.819824 2.05665 0.0625204 -0.747418
24 3 4.33164 1.62936 4.16539 -0.481037 0.646951 0.83787
25 3 4.07518 4.87029 20.4248 0.134025 -0.197269 0.0566688
26 3 3.9393 1.58755 11.5932 -0.0454287 0.0119282 -2.1424
27 3 4.63497 1.56165 18.3786 0.409096 0.232384 -0.455051
28 3 5.01342 4.68913 0.25225 -0.233432 -0.280943 -1.51414
29 3 5.10998 0.244571 6.82658 2.06584 1.03682 -0.43188
30 3 5.46 2.9608 2.14498 -0.289369 0.138941 -0.192805
31 3 5.70348 4.91449 7.02408 0.435482 0.404212 1.26793
32 3 5.13057 5.1658 11.7996 2.08728 1.15299 0.0573993
33 3 5.38152 2.7365 9.37926 -0.946384 -0.0464759 -0.907149
34 3 5.61141 2.66126 20.6443 0.00818178 1.25461 0.493211
35 3 5.94063 1.74412 13.4088 1.77922 0.283263 1.027
36 3 6.62924 3.18273 4.5671 -0.865529 -0.207802 0.199823
37 3 5.76308 4.6057 15.7721 1.32103 0.442394 -0.281419
38 3 6.49941 5.37949 2.32906 -0.386408 0.0401344 0.0193499
39 3 6.70855 1.03411 2.95751 -0.398691 -0.509809 0.803824
40 3 6.82843 0.755647 19.669 0.201132 0.415692 0.10428
41 3 6.8016 3.08486 18.1924 1.08835 -0.00910814 -0.396766
42 3 6.75495 5.12588 20.5056 -0.382512 -0.272623 0.0365173
43 3 7.43717 5.36837 9.23767 -0.529108 -0.0461497 -0.046738
44 3 7.37727 0.87093 22.5288 0.524041 -0.587732 -0.787112
45 3 7.72807 1.96736 7.13936 0.192374 0.160927 0.289345
46 3 7.38262 4.89421 13.5466 -0.961604 -0.00720358 1.36228
47 3 1.0952 1.51944 15.4871 0.0904558 0.0875679 0.656167
48 3 1.87066 0.244692 4.6094 -1.07189 -0.207181 0.352416
49 3 7.3708 1.41483 11.0156 1.19025 0.631077 -2.28079
50 3 2.06315 3.06964 9.36445 0.0812254 0.139589 -0.320112
51 3 2.05865 2.90084 2.19187 1.23654 1.30386 -0.0673149
52 3 2.13628 0.033274 18.2376 0.470885 0.470782 -1.19114
53 3 2.25859 2.73562 13.3421 -0.222176 0.947149 0.834272
54 3 2.73795 2.03392 21.0102 -1.83664 0.487291 0.179806
55 3 3.0746 1.02251 8.2224 -0.0239513 0.103838 1.58104
56 3 3.44489 0.754684 14.3784 0.463863 -0.8258 1.40631
57 2 2.29538 3.87742 21.7234 -0.224899 0.882282 0.391003
58 2 2.53543 3.79833 1.9913 -0.729732 -1.18356 0.498469
59 2 9.10179 5.39397 22.3167 0.41707 -0.0471862 -0.18665
60 2 3.49743 1.49332 21.335 -0.674416 0.0600922 0.0789525
61 2 3.90084 1.95823 10.6454 0.340848 -0.526929 1.51166
62 2 2.96839 1.80788 1.16898 -1.13789 0.622613 0.775347
63 2 4.03612 5.15223 13.0104 -0.0566523 0.493299 0.0154234
64 2 4.45918 1.72018 0.916895 -0.554217 -0.432223 0.064737
65 2 5.2964 1.65022 12.7051 -1.28066 -0.412955 -1.019
66 2 3.26631 2.0885 12.1007 -0.35158 0.156201 0.600922
67 2 6.04497 2.20366 9.85139 0.557639 0.335632 0.856005
68 2 5.54953 6.0954 11.5481 -0.898105 -1.60793 0.64676
69 2 5.9333 4.78676 12.2861 -0.883331 0.376878 -0.422523
70 2 5.35833 3.69074 9.5797 0.439547 -0.118084 0.679392
71 2 6.54679 0.963289 13.4089 -0.354064 0.121618 0.149248
72 2 6.81923 1.3724 21.8992 -0.550183 0.0952242 0.583307
73 2 6.87016 1.16584 1.07759 -0.40063 0.553028 0.265816
74 2 7.57845 4.96324 21.1519 -0.449136 0.141861 -0.322171
75 2 0.866283 0.0714291 9.86891 -0.336218 -0.893477 -0.0818885
76 2 7.92819 3.05398 2.01 -0.586304 0.145654 -0.297201
77 2 1.26653 2.04406 10.639 -0.720713 -0.717597 0.201311
78 2 7.19478 1.77453 11.881 -0.403171 0.334366 1.51755
79 2 1.87943 1.78645 21.5337 2.0525 -0.312096 -0.676972
80 2 3.82058 0.0441116 1.7291 0.191454 -0.0196908 0.415998
81 1 3.4517 5.81018 6.91797 0.00644384 -0.312642 -1.04257
82 1 3.58451 5.4485 16.1326 0.500377 -0.515083 -0.258313
83 1 5.43064 2.61417 7.04408 0.909002 0.173374 -1.19581
84 1 5.66014 2.10083 15.8504 0.0872554 1.43755 0.272604
85 1 6.70741 5.65603 4.77954 0.0344952 -0.530159 -0.0131812
86 1 7.02912 5.40827 17.9905 -0.301085 0.0666208 0.996747
87 1 2.1294 2.75371 4.72443 0.00745086 -0.67451 -0.253026
88 1 2.43707 2.55431 18.2252 0.348375 -1.20843 0.202482
