104
Lattice="6.8064 0.0 0.0 -4.110446609 6.204676621 0.0 0.625289135 0.845051123 28.212521555000002" Properties=species:S:1:pos:R:3:energies:R:1:forces:R:3 energy=-665.2359008789062 free_energy=-665.2359008789062 stress="0.008247566409409046 -0.0012457731645554304 -0.0015677937772125006 -0.0012457731645554304 0.006510329898446798 -0.0001348332443740219 -0.0015677937772125006 -0.0001348332443740219 0.005967911798506975" pbc="T T T"
Ca      -6.25153522       5.93726919      21.88633183      -6.34374189      -0.00110886      -0.00219458       0.00029533
Ca      -6.09680802       6.01313743      14.00580046      -6.31618834      -0.00011554       0.00003157       0.00137688
Ca      -4.29207657       2.77410326      21.99415436      -6.30819464       0.00149819       0.00046573      -0.00033421
Ca      -3.53944261       5.63925423       7.83442491      -6.38830566      -0.00213828      -0.00032059       0.00121176
Ca      -2.75361080       5.99144337      19.93989475      -6.35561132       0.00024964      -0.00054806       0.00170627
Ca      -1.57991296       2.45443181       7.95630799      -6.32778358       0.00145365       0.00098637       0.00071714
Ca      -1.17386594       2.50234486      -0.18805544      -6.25408411      -0.00057974       0.00045230       0.00189552
Ca      -0.62933662       2.93429930      19.85494602      -6.35074759      -0.00197778      -0.00231431       0.00083278
Ca      -0.18187413       5.59398666       5.85570946      -6.31602335      -0.00094313      -0.00151928      -0.00146930
Ca       1.97999246       2.56129038       5.96532115      -6.35252190       0.00102134      -0.00122067       0.00034205
Si      -6.22617810       6.27615359      18.87456688      -6.54315090       0.00079968       0.00024214       0.00506698
Si      -4.37928381       4.89885639      16.78870497      -6.51781130      -0.00075101       0.00252529      -0.00155030
Si      -3.68638876       5.94975914       4.73267310      -6.54991674      -0.00241473      -0.00033772      -0.00253346
Si      -3.84758811       2.67774275      18.83660421      -6.58155966       0.00283089       0.00259328      -0.00173096
Si      -3.26071732       1.38365632      11.09683854      -6.47230816       0.00203455      -0.00280864       0.00471901
Si      -2.66397287       5.60540961      23.16880766      -6.56595087       0.00120056       0.00150895      -0.00299786
Si      -1.83620750       4.52663128       2.72551596      -6.45721197      -0.00059680      -0.00010362       0.00013544
Si      -1.31709729       2.30988654       4.89182954      -6.56906271       0.00304615       0.00181146      -0.00106995
Si      -1.01293502       2.98529874      22.98164533      -6.60862541      -0.00320428      -0.00096950      -0.00216338
Si      -0.07046998       5.35691895       8.96075103      -6.55669928       0.00099088       0.00205726       0.00000184
Si       0.85352577       1.67264685      25.15923657      -6.48865223       0.00129868      -0.00132315      -0.00201627
Si       1.66672429       2.79061596       9.08797828      -6.52884054      -0.00078078      -0.00250760       0.00651474
O       -7.40584026       7.43086619      12.67909843      -6.37952280       0.00169015      -0.00093761      -0.00246719
O       -5.87186638       6.25953987       8.07560007      -6.31922245       0.00273516      -0.00060192      -0.00152023
O       -5.95417896       5.87249198      24.40201738      -6.53699827      -0.00043151       0.00872304      -0.00017374
O       -5.60384177       2.89415780       0.56378528      -6.46034670      -0.00687977      -0.00623665      -0.00098252
O       -5.67937226       5.59259636      17.48844404      -6.22526646       0.00087361      -0.00127644      -0.00120208
O       -4.64345158       4.91866189       5.55466043      -6.35938644       0.00206826      -0.00176907      -0.00164678
O       -5.00562591       6.74134842      19.83967165      -6.37923574      -0.00127610      -0.00014814      -0.00327121
O       -4.73091972       2.75286681       3.36077035      -6.46765471       0.00335581       0.00502455       0.00168505
O       -4.62405604       7.22766677       4.21655639      -6.35548830      -0.00026873      -0.00127110       0.00082893
O       -4.53304337       4.89696869      15.19797224      -6.36905146      -0.00083114      -0.00012970       0.00312540
O       -4.26405516       6.89521370      12.47663649      -6.38997507       0.00160363       0.00224603       0.00105054
O       -3.93656163       3.28453559       8.10752338      -6.38573217       0.00390005      -0.00110952       0.00030279
O       -4.32685848       3.34896827      17.38380621      -6.35102367      -0.00040687      -0.00193801       0.00488755
O       -4.05322895       5.11697244      22.47693793      -6.31644440       0.00360956      -0.00150681      -0.00003329
O       -3.15537978       5.35348813       3.28574947      -6.32506323       0.00095529       0.00303100       0.00108467
O       -3.28345518       5.32479798      10.47863970      -6.51417971      -0.00224389       0.00178954       0.00066390
O       -4.20823790       5.09533935       0.16200896      -6.59860611       0.00103340       0.00036111       0.00012219
O       -2.78220184       3.50542173      14.00504630      -6.55720854       0.00037631       0.00143003      -0.00090421
O       -2.93505663       3.66248595      19.73681889      -6.29510355      -0.00325083      -0.00220056      -0.00210252
O       -2.56429128       1.77950229       5.79317467      -6.42305613      -0.00091354      -0.00182209       0.00326882
O       -2.47702227       6.42985045       5.71291033      -6.37235069       0.00019618       0.00186644       0.00215696
O       -2.90518523       6.33651026      24.66111468      -6.36394119       0.00040646       0.00322783       0.00060189
O       -3.46994643       1.61680839      -0.81876226      -6.42867947       0.00407095       0.00273318      -0.00369009
O       -3.04338770       5.73630396      17.35562387      -6.24730492      -0.00291140       0.00033380       0.00351702
O       -2.93594559       1.39612350      18.27317736      -6.38120651      -0.00082602       0.00188626      -0.00023462
O       -2.02839452       1.58415734      15.63967252      -6.46472216      -0.00332139      -0.00061406       0.00389352
O       -1.90315844       2.18018743      10.50147896      -6.28027916       0.00091997       0.00243019      -0.00058232
O       -1.89838471       3.10200887       3.56904901      -6.31396580      -0.00086030       0.00026736       0.00008669
O       -1.90619602       4.24871599       1.16382421      -6.31214571      -0.00107137      -0.00070734      -0.00052535
O       -2.05670068       2.06553446      22.15961519      -6.31260347       0.00084827       0.00166666       0.00305931
O       -1.82025966       6.55216821      22.14584101      -6.35075617       0.00027400       0.00020584      -0.00218289
O       -1.31260652       4.83500775       8.06411785      -6.37013960      -0.00019381       0.00219812      -0.00066360
O       -1.78801578       4.28391276      23.64112949      -6.27946043       0.00318011       0.00115159       0.00303418
O       -0.46563593       5.32022426       3.28421051      -6.29658937      -0.00034447      -0.00210760       0.00027452
O       -0.31771186       3.20229400       5.80131384      -6.33902264      -0.00284913      -0.00145242      -0.00142748
O       -0.98122162       4.94076335      15.37008708      -6.43748474      -0.00016711      -0.00144785       0.00185635
O       -1.39570204       0.70912974       1.57766848      -6.42964220      -0.00029509      -0.00137393       0.00164409
O       -0.66921197       6.12485303      10.31983190      -6.39304161       0.00128321       0.00086771      -0.00079737
O       -0.43878616       5.32827722      19.70386425      -6.37590790      -0.00066897      -0.00019602       0.00028208
O       -0.73563786       5.11980971      26.41643712      -6.37971926      -0.00578814      -0.00203205      -0.00784232
O       -0.30395439       2.95111376      17.28781074      -6.41052103      -0.00249612       0.00135089      -0.00012252
O       -0.47690656       2.10977691      24.29073219      -6.34703636      -0.00229034      -0.00024553      -0.00070788
O        0.21932758       3.48895377      22.03983038      -6.39649248       0.00060740      -0.00020054      -0.00173149
O        0.71842407       1.73163748       8.32446703      -6.29993725       0.00229084      -0.00019047       0.00107592
O        0.81398799       4.18632316      12.42081742      -6.41197777      -0.00457816      -0.00085470       0.00074425
O        0.73414509       4.06728757       9.64304770      -6.39435005       0.00241507      -0.00672961      -0.00246724
O        0.57619850       1.76745764      26.72601180      -6.34271669       0.00018693       0.00154518      -0.00096850
O        1.68541288       2.15089879      19.69619505      -6.38213539      -0.00373177      -0.00126205      -0.00054130
O        2.28897748       2.28850709      10.54698199      -6.38344955      -0.00296185       0.00224059      -0.00519214
O        2.08453802       2.67478176      24.59234773      -6.30248976       0.00063703       0.00151796       0.00109917
H       -8.38932154       8.17120846      -0.35517243      -6.45756197      -0.00503593       0.00138130      -0.00058265
H       -5.58211929       6.78620845      24.50756101      -6.34754896      -0.00222102      -0.00364360      -0.00306160
H       -5.39467037       2.72440858       1.51305034      -6.42800045       0.00068706      -0.00061880       0.00317932
H       -4.85328184       3.72463006       3.41886174      -6.34796524       0.00208186      -0.00661563      -0.00100194
H       -5.15190504       3.77895186       0.35643993      -6.38779926       0.00307275       0.00443447       0.00012051
H       -5.16281360       5.31894332      24.19906503      -6.38850546       0.00196581      -0.00226041       0.00291689
H       -4.97082064       6.15826794       1.16369857      -6.41288328       0.00020374      -0.00030405      -0.00087604
H       -3.58825912       4.01442832      14.40186361      -6.39263105      -0.00052238       0.00166744       0.00144038
H       -3.75015784       2.66776165       3.26524575      -6.35647631      -0.00219872       0.00027617      -0.00096167
H       -3.94574901       6.25737235      11.77375683      -6.41526937       0.00056968       0.00042855       0.00193646
H       -3.96405062       2.77126646      25.20127450      -6.36412048      -0.00424328       0.00181771      -0.00150674
H       -4.12428330       5.78546501      -0.58373922      -6.39967108       0.00351389       0.00207851      -0.00050230
H       -3.05210146       2.72969778      13.42666087      -6.36384583       0.00198379       0.00317601      -0.00041085
H       -3.36511689       4.37246611      10.68426845      -6.38349056      -0.00018501      -0.00295847      -0.00016335
H       -2.54875225       1.45663430      16.47300438      -6.41449165       0.00225811       0.00168793      -0.00373643
H       -2.30657461       5.51447524      10.51488734      -6.36768150       0.00213131      -0.00111100      -0.00080125
H       -3.28146782       4.85084854       0.49751497      -6.44210672       0.00131176       0.00010281       0.00221575
H       -2.39866539       2.39339002      15.16372579      -6.37623930       0.00008813      -0.00369223       0.00096594
H       -2.96555028       1.49203566      27.38518573      -6.35492468       0.00058887       0.00140287      -0.00146923
H       -2.26525045       5.66066718      16.75723078      -6.43655062       0.00286036       0.00249407      -0.00285926
H       -1.57946971       4.38059212      14.79600836      -6.37692690       0.00139610       0.00204975       0.00019708
H       -1.11021902       1.99353096      11.05007662      -6.43248749       0.00006135      -0.00009291      -0.00244147
H        0.02385564       5.86787473       2.61871145      -6.41618347      -0.00259796       0.00143494       0.00030380
H       -0.64094038       4.32841624      16.07734107      -6.44866133      -0.00056177       0.00335351      -0.00208681
H       -0.95215820       0.90662010       2.43951810      -6.42442513      -0.00119255      -0.00161245      -0.00103636
H       -1.59533023       5.28218228      25.97087067      -6.42620611       0.00651628      -0.00089082       0.00380521
H        0.67202995       1.00292619      12.89262090      -6.33604479       0.00144911      -0.00544427       0.00071120
H       -0.74431503       2.27405178      16.71196788      -6.42650223      -0.00220007       0.00096621      -0.00187143
H       -0.08170532       5.32054466      25.68702167      -6.41921997      -0.00220108      -0.00207294       0.00071523
H        0.68121361       4.20820690      11.43803996      -6.40565014       0.00112189      -0.00033629       0.00073934
H        0.67204135       2.83220077      17.19895338      -6.39840412      -0.00005276      -0.00015331      -0.00063875
H        1.47614526       3.48236262      12.54086107      -6.32570505      -0.00012246      -0.00118487       0.00144575
