ITEM: TIMESTEP
5208
ITEM: NUMBER OF ATOMS
88
ITEM: BOX BOUNDS xy xz yz pp pp pp
0.0000000000000000e+00 9.7624157930000006e+00 2.6646871069999998e+00
-2.6981789499999997e-01 6.1848149740000000e+00 2.9402868599999998e-01
0.0000000000000000e+00 2.2405446356999999e+01 -2.6981789499999997e-01
ITEM: ATOMS id type x y z fx fy fz
1 4 8.56703 4.55805 9.84457 -1.47 0.639103 0.0554184
2 4 8.82419 4.17822 13.0324 -1.0969 0.590849 -0.605372
3 4 3.18414 5.94047 3.73724 -0.765179 -0.0237432 -1.39548
4 4 3.61806 5.58801 18.9667 -0.975882 2.22891 2.60968
5 4 5.08404 4.65056 1.87564 1.12359 -0.995007 -1.31774
6 4 5.61017 2.30853 3.84207 -0.557376 1.03325 0.739117
7 4 5.64512 4.33769 21.0403 -0.458331 0.849205 0.927204
8 4 6.0545 2.11052 19.0209 0.370415 -0.173493 1.03675
9 4 6.66326 5.90967 7.90667 1.35489 0.594297 0.598395
10 4 6.95596 5.57759 14.9967 -1.09464 -1.07517 0.837381
11 4 2.24803 2.33186 7.88338 0.368696 -0.607642 -0.0730207
12 4 2.56003 1.92373 14.8731 -0.694537 1.82794 0.935535
13 3 5.55076 -0.0619114 15.7904 0.558186 0.612691 0.812379
14 3 8.55504 4.31824 11.4166 0.338315 0.16774 1.82188
15 3 2.25143 4.9763 4.59757 -0.845292 -0.530082 0.566258
16 3 8.95235 4.98283 22.0174 -0.662811 -0.28256 0.818794
17 3 2.70624 4.56116 18.1958 -0.400703 0.0195839 -0.691004
18 3 3.17356 3.24639 6.94454 -0.143432 0.502825 0.238932
19 3 3.00337 5.47983 9.36917 0.64831 -0.311164 -0.913017
20 3 3.6205 5.18273 2.26225 -0.755453 0.691903 1.06429
21 3 3.19422 5.18672 13.5569 0.17131 -0.00565087 -0.31039
22 3 3.4566 2.96565 15.7822 0.0902688 -0.610241 -0.559529
23 3 4.14709 1.44209 0.704805 0.106916 -0.684492 -0.408423
24 3 4.29653 1.9691 4.74771 0.333144 -0.634401 -0.72362
25 3 4.29141 4.98368 20.4022 -0.832052 0.306003 -1.16828
26 3 3.79221 1.15196 11.4232 -1.38897 0.998298 -0.81279
27 3 4.71704 1.73509 18.2066 -0.301307 0.0318352 -0.346547
28 3 5.06239 4.50282 0.215849 -0.0471238 0.110992 1.93076
29 3 5.28422 0.213233 6.9891 -0.942093 -0.406063 0.728238
30 3 5.27976 3.10281 2.42484 -0.314365 1.07555 -0.361107
31 3 5.72044 4.9431 7.0502 -0.461477 0.155644 -0.0250318
32 3 5.15779 4.75414 11.9861 2.44172 1.25841 -0.427395
33 3 5.25031 3.08109 9.36843 -0.129977 -1.07392 -0.121993
34 3 5.80039 2.84768 20.5154 0.113621 -1.36563 -0.962948
35 3 5.77354 2.02124 13.3365 0.561461 -0.570263 -0.287869
36 3 6.5758 3.21165 4.78633 0.0209944 0.25864 -0.106507
37 3 6.05114 4.64751 16.0503 -0.053418 0.974619 -1.48791
38 3 6.33323 5.58928 2.43722 -0.514248 0.258843 -1.46126
39 3 6.36843 1.03857 3.18032 1.26287 -1.52764 0.426404
40 3 6.68133 0.67783 19.5629 1.6225 -1.19589 -0.984738
41 3 7.01413 3.11873 18.1191 -0.673341 -1.63789 0.865423
42 3 6.84137 5.35891 20.743 1.5027 0.252165 -0.620583
43 3 7.1228 5.21021 9.3681 0.476856 0.284875 -0.222131
44 3 7.28681 1.63216 0.0818163 0.208035 0.201723 -0.536534
45 3 0.905041 1.87345 7.12452 0.410801 -0.723752 -0.133136
46 3 7.43371 4.64469 13.7331 -0.32059 0.0447507 -0.342997
47 3 1.17985 1.66481 15.6958 0.490387 -0.540587 -0.338021
48 3 1.79038 0.105394 4.64371 0.481171 0.949317 0.283827
49 3 7.34917 1.40695 11.0609 -0.434475 -0.816526 -0.0117134
50 3 1.74252 3.07106 9.27165 0.701306 -0.886889 -0.350141
51 3 1.98887 2.71965 2.21123 0.417917 0.462878 -0.372538
52 3 2.08922 0.109807 18.0836 0.607982 -0.362678 -0.14128
53 3 2.26112 2.62229 13.3911 0.237242 -0.0678128 -0.690915
54 3 2.62612 1.77542 20.6571 1.24546 0.747935 0.702826
55 3 3.19164 1.04437 8.51438 -0.997905 0.614475 -0.287089
56 3 3.27925 0.560142 14.3968 0.590261 -1.04363 0.00610897
57 2 8.91226 6.03406 0.139718 0.129705 0.396163 0.14768
58 2 2.4773 3.53769 1.87461 -1.14144 -0.766578 0.362136
59 2 2.99341 4.72163 21.6153 0.385056 -0.0145318 -0.67909
60 2 2.86358 0.98041 20.1449 0.256028 -0.411795 0.21485
61 2 3.46233 1.05838 10.4726 0.621172 -0.00156724 0.529605
62 2 3.25155 1.76846 0.918124 -0.0287612 0.350884 0.533154
63 2 3.98283 5.13317 12.9078 0.507394 0.0819631 0.115784
64 2 4.78616 1.98589 1.2466 -0.532624 0.0382082 -0.0107427
65 2 5.07971 1.62643 12.7368 0.664178 0.107164 0.589992
66 2 3.10879 1.80143 11.8084 0.78288 -1.05401 0.0168359
67 2 4.89578 2.70709 10.2088 0.0651177 0.705788 -0.492028
68 2 5.79544 5.53155 11.7009 -1.75623 -0.849332 0.325865
69 2 5.86536 4.29861 12.5224 -0.766501 -0.338516 0.0640538
70 2 5.3753 4.04011 9.42602 0.021529 0.116215 0.677405
71 2 6.647 1.54651 13.1662 -1.28396 0.581614 0.217309
72 2 6.80161 1.65132 21.96 0.0457499 0.104276 0.240842
73 2 1.50047 1.4611 21.7682 -0.604286 -0.227981 0.616702
74 2 7.81519 5.24158 21.2542 -0.893625 0.0425572 -0.551069
75 2 0.592527 0.0428162 9.95816 -0.0407699 0.510426 0.519214
76 2 1.21316 2.47297 1.62373 0.504187 0.396188 -0.0182795
77 2 6.37984 1.49659 11.2069 0.581191 0.14352 -0.280561
78 2 0.791453 2.05471 10.3676 -0.00959176 0.436981 -0.129254
79 2 3.43727 1.91498 21.2533 -0.857046 -0.291658 -1.03266
80 2 3.82788 0.11155 1.68299 0.489873 -0.322507 1.06655
81 1 3.40302 5.69082 6.82307 -0.163332 -0.355982 -0.372525
82 1 3.67304 5.44894 15.9349 -0.00115586 -0.24465 0.0674102
83 1 5.47585 2.60397 6.89015 -0.023544 0.0299007 -0.136617
84 1 5.76598 2.39047 16.0899 0.0778564 -0.267581 -0.522306
85 1 6.77544 5.71553 4.96541 -0.0210832 -0.238952 -0.785153
86 1 7.05325 5.31686 17.9816 0.656247 1.02613 0.487742
87 1 1.98267 2.67361 4.77584 0.66377 -0.13175 -0.0787475
88 1 2.4401 2.39404 17.8863 0.146559 -0.143005 -0.110642
