ITEM: TIMESTEP
5204
ITEM: NUMBER OF ATOMS
62
ITEM: BOX BOUNDS xy xz yz pp pp pp
-3.9302509624426962e-01 1.1182806426442088e+01 -1.7166441653774250e-01
-1.8706295126395140e+00 7.3973210525733135e+00 -1.5352248387955020e-01
4.8198839650126502e-04 9.3742166063195143e+00 -1.9246640213837298e+00
ITEM: ATOMS id type x y z fx fy fz
35 3 3.45503 0.880962 0.970301 -0.32159 -0.647974 0.148873
25 3 0.400128 1.01198 1.39909 0.340256 -0.267357 0.243774
16 4 4.697 1.12849 1.95586 -0.486697 2.09869 -0.962438
44 3 6.13484 1.05323 1.33402 0.212729 -0.926094 -0.113974
22 4 10.2249 0.775201 2.06729 1.14625 -2.43744 0.459517
53 3 8.98984 1.13686 1.18521 -1.29049 -0.023022 -1.42432
2 1 1.91228 2.75848 1.33256 -0.416671 -0.131203 -0.206948
7 1 7.42071 2.79385 1.36659 0.044752 0.742505 -0.182663
40 3 4.33667 2.67326 2.63539 0.183315 0.468426 -0.3314
3 1 1.84998 6.40601 1.25118 -0.93485 0.129297 -0.0752354
26 3 0.428817 4.61049 1.26889 0.689194 0.111821 -0.759808
34 3 3.32405 4.59174 1.06755 0.00552196 0.630693 -0.293326
8 1 7.32931 6.40423 1.41109 0.106159 0.515053 -0.0255625
15 4 4.48392 4.362 2.15087 0.167815 -1.4393 -1.04041
43 3 6.01098 4.65543 1.80525 -0.327934 -0.388284 -0.534855
21 4 10.2302 4.80416 1.82696 -1.59984 1.04344 1.37254
52 3 8.84777 4.60887 0.99164 1.03419 -0.351707 -0.0748413
58 3 9.96833 6.36009 2.5392 0.30172 0.717964 -0.593967
37 3 4.00893 -0.648054 5.70283 -0.366964 0.299632 -0.986713
38 3 4.68923 0.285 3.38193 -0.605917 -0.824611 1.09802
46 3 6.16994 0.230458 6.08549 -0.344648 -1.04979 -1.3981
60 2 5.00119 -0.174475 5.83107 0.310426 -0.591895 -0.0201419
61 2 5.74635 -0.186137 3.60246 0.928449 -0.591982 0.270894
1 1 11.058 -0.497549 4.67343 0.0181458 -0.335225 -0.14869
19 4 7.33261 -0.903774 5.29759 -2.84297 -0.883044 0.689004
54 3 8.85631 -0.733133 5.67697 -0.397491 -0.107163 0.0640327
13 4 1.48109 2.71156 5.15341 0.0495805 -0.274876 1.17304
28 3 0.367455 3.8547 5.85872 0.30583 0.558345 0.574793
29 3 0.889907 1.24624 5.71497 0.502451 0.533697 0.556456
30 3 1.03374 2.81167 3.5968 0.476858 0.320024 -0.58308
36 3 3.00936 2.93743 5.61611 -0.724264 -0.0487119 -0.690817
59 2 0.0830117 3.28191 3.36401 -0.427201 0.862872 0.337047
6 1 5.29525 3.09645 4.68766 0.320115 0.0986112 -0.000716147
20 4 9.18507 2.64753 4.09265 -0.221216 2.04189 -0.197995
49 3 7.6797 2.85871 3.67733 -0.63887 -0.30133 0.240825
55 3 9.53346 2.94005 5.65669 -0.123049 0.331991 0.86843
56 3 9.8911 1.26353 3.64702 0.68705 -0.909402 -0.474389
57 3 10.1917 3.83178 3.24861 0.48388 -1.06003 0.16873
62 2 10.4943 3.44176 5.82153 0.315699 -0.726694 -0.95426
14 4 3.39282 6.46145 4.07585 0.351387 0.125524 1.33138
31 3 1.84564 6.6176 3.66018 1.53276 -0.0744764 0.129529
39 3 4.11594 5.04631 3.59281 -0.592988 0.335622 0.871901
47 3 6.3965 4.91938 5.84334 1.2295 1.65438 -0.845826
48 3 6.73016 -0.769981 3.78482 0.120112 0.829136 -0.511627
12 4 0.752911 0.610093 7.30587 0.0228203 1.33315 0.41299
27 3 0.903646 -0.975163 6.82511 -0.221491 -1.57781 -0.276211
32 3 1.95498 0.996685 8.33023 -0.45449 -0.734753 -0.656594
4 1 3.47881 -1.02754 7.99021 -0.0571228 0.499869 0.118457
17 4 6.09521 1.10948 7.47991 2.97029 0.636706 0.920246
41 3 4.79732 1.01534 8.30364 -1.74166 -0.712665 0.508831
24 3 10.5351 0.985224 7.81931 -0.373677 -0.5036 0.0913028
9 1 9.06942 -0.821738 8.12649 0.183695 -0.398552 0.107498
50 3 7.48208 0.79162 8.27441 -0.233546 0.216409 0.0386968
5 1 3.36087 2.76917 7.92137 0.132356 -0.091277 0.497196
18 4 6.22064 4.27669 7.35621 0.388731 0.799236 1.91361
45 3 6.31036 2.6702 6.90587 -0.0143029 -0.212672 -0.657477
10 1 8.94249 2.73532 7.99118 -0.0461008 -0.358663 0.0166
11 4 0.450583 4.75114 7.31747 -0.623916 0.574112 0.95049
33 3 1.80242 4.39868 8.10216 -0.061127 0.19193 0.649344
42 3 4.78158 4.62764 7.98588 -0.0309725 -0.411467 -0.420185
23 3 10.2839 4.55864 8.09381 1.31185 0.752937 -0.619077
51 3 7.44304 4.57829 8.41047 -0.351839 -0.0608867 -0.762411
