ITEM: TIMESTEP
5215
ITEM: NUMBER OF ATOMS
104
ITEM: BOX BOUNDS xy xz yz pp pp pp
4.9689042373988190e-02 9.9773461123816993e+00 2.5387882689147698e+00
1.1057942588266112e-01 7.6192742811674146e+00 5.3414539329559863e-01
1.6292295035227866e-01 2.8260012708342423e+01 1.3768394085669513e+00
ITEM: ATOMS id type x y z fx fy fz
1 1 7.36411 6.13602 13.9282 0.111108 -0.116548 0.551909
2 1 7.03977 6.35551 22.2094 0.10854 -0.617332 -0.0425763
3 1 3.26072 5.6232 7.80044 0.312014 0.690362 0.352321
4 1 2.28236 3.24579 21.94 -0.116957 0.124566 0.793607
5 1 3.68317 6.33984 20.1725 -0.0591356 -0.343826 0.388364
6 1 5.47145 2.64445 8.04089 -0.0474387 -0.515558 -0.521969
7 1 6.1 3.92691 28.1291 0.0524649 0.415676 0.439421
8 1 6.83547 5.8875 5.83559 -0.166872 -0.761677 -0.0825297
9 1 6.00879 3.32891 20.0136 0.0731082 -0.110499 0.338376
10 1 2.345 2.77574 5.87131 -0.248795 0.1177 -0.29447
11 2 3.68944 1.63404 11.0492 0.808416 -1.54359 -1.9056
12 2 7.0672 6.58287 19.1387 -0.586226 -2.26156 0.716883
13 2 8.98208 5.19065 17.0595 -0.815046 0.922857 0.261978
14 2 3.38469 6.09488 4.74664 0.141193 1.22461 -1.0442
15 2 2.75404 2.98918 19.0343 -1.44819 -0.845925 -1.32423
16 2 3.81378 6.19618 23.3092 -0.774232 -1.08394 -0.441339
17 2 5.35284 4.87262 2.7281 1.64572 -1.38129 1.02957
18 2 5.88919 2.56775 4.80275 0.580637 -0.361787 0.928369
19 2 5.52647 3.51647 23.1494 0.919559 0.957386 -0.503763
20 2 6.77692 5.43294 8.82409 -1.7463 0.725371 0.309045
21 2 7.48207 2.44798 25.2725 0.301361 -1.10448 -0.182793
22 2 1.70369 2.87239 9.17659 0.555182 -0.203454 -0.300368
23 3 3.46953 1.26851 12.5386 0.695136 -0.343893 2.54704
24 3 7.73929 6.31681 7.9346 1.05132 0.849698 -0.375221
25 3 7.10451 6.45039 24.7646 1.99344 0.958045 -1.43988
26 3 7.55649 5.66284 17.8398 0.437079 -0.280569 -0.29089
27 3 2.50786 5.10587 5.63574 -0.818954 -0.749074 -0.110908
28 3 8.27649 7.07504 20.0755 0.0466576 0.393113 0.0354711
29 3 5.94881 0.982951 1.65406 0.628627 -1.16357 0.853913
30 3 6.75605 1.27235 4.16828 0.443125 -0.881017 0.480523
31 3 8.87194 5.32869 15.4851 -0.355957 -0.0516342 -0.990355
32 3 1.88262 3.42388 24.7097 -0.246959 -0.325139 0.108382
33 3 2.91395 3.37226 8.20703 0.0639018 -0.624247 -0.537509
34 3 2.5292 3.68496 17.5221 -0.477739 -0.726484 0.374225
35 3 3.61619 5.41023 10.4498 -1.04272 -0.313524 0.0716742
36 3 2.51844 5.57645 22.4744 0.519879 0.279927 0.994769
37 3 3.44059 3.61798 13.6855 0.10244 -0.822305 -0.0556228
38 3 3.99376 5.53299 3.27374 -1.22822 0.550285 1.30365
39 3 2.87109 5.28563 0.233484 -1.53714 0.421413 -0.4927
40 3 3.292 6.15978 17.7267 0.685724 -0.456776 0.210479
41 3 4.62093 1.99618 5.67041 0.194508 0.75974 0.137546
42 3 3.46646 3.99637 20.0021 1.51265 0.648721 0.859108
43 3 2.02245 0.481629 5.7151 0.393315 0.501976 0.073651
44 3 3.46736 6.96196 24.7647 0.195862 1.13272 -0.157425
45 3 3.6571 1.68341 18.5164 -0.291018 0.977518 -0.145519
46 3 3.46305 1.39261 0.306006 -2.50772 -0.0998347 -0.73072
47 3 5.36502 4.76111 1.16387 0.0119415 -0.151158 -0.885553
48 3 4.19174 1.94654 15.8327 0.184796 -0.878014 0.949069
49 3 5.3896 3.26321 3.41149 -0.388529 2.13483 -0.970156
50 3 5.08808 2.40227 10.4695 -0.616727 0.136924 0.240428
51 3 5.51099 4.93931 7.90137 0.646071 -0.0920349 0.964778
52 3 4.6471 7.05549 22.2549 0.499911 1.10348 -0.347795
53 3 4.54824 2.47222 22.435 -0.320857 0.751964 0.0181469
54 3 5.44708 4.98109 14.8768 0.0187542 -0.532166 -0.859722
55 3 4.90638 4.96487 23.7329 -1.1954 -0.0753543 -0.0639774
56 3 6.6438 5.73033 3.44205 -0.987298 -0.675702 -0.0299636
57 3 6.87706 3.46125 5.74217 -0.222311 -0.339961 -0.117204
58 3 5.23653 5.21024 26.4434 0.123098 -0.115405 -0.496094
59 3 6.16319 6.29452 10.1584 0.154575 0.681349 0.0869917
60 3 6.03585 5.66027 20.0698 0.533456 0.499385 -0.820714
61 3 6.73779 1.11177 12.4018 0.332398 -0.403576 -0.0317098
62 3 6.11895 2.98657 24.5536 -0.107554 -1.36227 1.70265
63 3 6.56675 2.48625 17.5905 -2.125 -0.444764 -1.67611
64 3 0.75657 1.70155 8.62124 0.197704 0.31532 -0.127007
65 3 7.81244 4.54239 12.2345 -0.00948664 -1.20945 -1.36953
66 3 6.8592 3.86719 22.279 -0.306926 0.130808 -1.03477
67 3 7.83629 3.20347 0.550107 0.37891 0.950198 -1.20569
68 3 7.59528 4.18159 9.49599 -0.503712 -0.137941 0.613084
69 3 7.24013 2.44398 26.8683 0.347177 0.384679 -0.813137
70 3 1.38237 2.48025 19.7839 0.707469 0.461741 -0.36728
71 3 2.50769 2.83157 3.25468 -0.635895 1.37419 0.860444
72 3 2.42412 2.58699 10.6905 -0.812103 0.59451 -1.24421
73 4 3.23924 0.413329 0.407242 0.44716 0.439024 0.224018
74 4 3.63319 2.00866 16.6741 0.710304 -0.185125 -0.872809
75 4 1.27895 4.0557 0.0854992 0.0265934 -0.953029 0.65747
76 4 8.5301 3.8427 12.0591 -0.850031 1.05765 0.337953
77 4 4.88978 1.26119 24.7306 -0.250854 -0.672766 0.401354
78 4 6.32629 6.41268 25.3006 -1.17472 -0.0971814 0.98886
79 4 3.41773 3.10583 3.10197 1.10413 0.835114 0.286906
80 4 6.48246 0.148639 1.37121 -0.461182 0.601746 -0.403231
81 4 2.67887 4.05781 14.1519 0.27311 -0.32101 0.19338
82 4 2.55766 2.04665 2.75073 -0.474691 -2.46394 -1.06082
83 4 2.85235 6.51341 11.8317 -0.131451 0.799496 0.606572
84 4 3.36543 7.56325 27.7247 0.210712 -0.961846 0.314001
85 4 3.33557 2.60192 13.4085 -0.244857 1.21431 -0.14272
86 4 8.51008 4.37868 24.6336 -0.00583816 -0.262745 0.0737786
87 4 3.57722 4.42556 10.5374 0.352071 0.722442 0.175026
88 4 3.09183 3.1455 28.0765 1.67999 -0.381049 0.632043
89 4 2.98897 7.08674 17.6652 0.00511539 1.0278 -0.111019
90 4 3.66916 5.08506 0.740451 1.27092 0.105957 -0.016284
91 4 4.54933 5.71462 10.4446 0.562024 -0.266302 -0.00264717
92 4 3.96438 2.70369 15.2781 -0.298413 0.793846 -0.327262
93 4 4.86097 4.39705 14.2894 0.253985 0.338549 0.325045
94 4 4.59714 5.92702 26.4785 -0.805691 0.70084 0.747443
95 4 4.77348 5.52734 15.3022 -0.276151 0.336134 0.47292
96 4 5.91826 2.27258 10.984 -0.269302 -0.331383 0.163966
97 4 6.35652 1.22937 2.53282 -0.155001 0.0340069 -0.131931
98 4 5.03629 4.88374 25.5376 0.227481 -0.490573 -0.5531
99 4 7.36338 6.06298 2.87635 0.104972 0.246842 -0.611103
100 4 5.81477 2.26494 16.8659 1.55837 0.948361 1.40735
101 4 0.572135 1.56828 12.9435 -0.159829 -0.582859 -0.649428
102 4 7.32816 4.53603 11.3346 0.797797 0.199482 1.2924
103 4 7.14529 3.19811 17.2494 -0.134468 -0.142909 -0.272099
104 4 1.36421 3.32416 1.42985 0.145943 0.0473521 0.689329
