ITEM: TIMESTEP
5044
ITEM: NUMBER OF ATOMS
62
ITEM: BOX BOUNDS xy xz yz pp pp pp
-4.3785981759439674e-01 1.1225608324482423e+01 -1.7187291065717397e-01
-1.8979599400603115e+00 7.4017804277092605e+00 -1.5534681306983864e-01
-5.5212712644451933e-02 9.4299113073604275e+00 -1.9475350736685644e+00
ITEM: ATOMS id type x y z fx fy fz
1 1 -0.376577 6.11764 4.6618 0.276192 -0.00550613 -0.126744
2 1 1.39453 2.94623 1.0148 -0.395677 -0.642425 -0.506819
3 1 1.28539 6.46914 1.12096 -0.157812 0.558947 -0.261357
4 1 3.85666 -0.88509 8.3443 -0.400198 -0.330328 0.219189
5 1 3.82176 2.88371 8.29626 -0.36371 -0.49221 -0.180656
6 1 5.53253 2.41611 4.70071 -0.378582 -0.0385208 0.236508
7 1 6.93321 2.82646 1.13764 0.412876 -0.743059 0.0327322
8 1 6.88197 6.4409 1.00274 0.463145 0.805035 -0.156625
9 1 9.34967 -0.802523 8.08311 1.06966 -1.07981 0.516953
10 1 9.439 2.69744 8.47271 0.413664 0.644758 -0.0619931
11 4 0.804992 4.75544 7.35219 -1.48928 0.695421 0.957344
12 4 0.934531 0.605446 7.19202 0.956577 -0.80219 0.113049
13 4 1.86239 2.71957 5.31531 1.54235 0.683705 1.404
14 4 3.23342 6.42635 4.03249 -0.968658 -0.287402 -1.24607
15 4 4.22079 4.40582 1.96104 0.753006 -0.114213 2.71446
16 4 4.1722 1.25045 2.13756 2.22458 0.0987793 -0.713486
17 4 6.56562 1.14407 7.37743 -0.00256148 -0.851726 0.664092
18 4 6.56185 4.39207 7.295 -0.278756 -1.14296 2.77861
19 4 7.52113 -1.00122 5.24463 0.0678965 2.0881 -0.142766
20 4 9.04171 2.85539 4.10158 -2.07069 -0.508118 0.00310457
21 4 9.82063 4.93703 2.04865 -0.931744 1.09153 0.627619
22 4 9.94279 0.842521 2.0303 -1.25348 -1.99875 -0.536255
23 3 10.787 4.54227 8.16312 -1.06896 -0.464004 0.53803
24 3 10.9456 0.956674 8.02546 -0.403198 0.33308 -0.228954
25 3 -0.0881965 1.16449 1.20219 1.03324 -0.00643698 -0.416981
26 3 -0.223101 4.5715 1.18479 0.470413 0.13053 0.138926
27 3 0.801132 -1.05126 6.77029 0.039816 1.73641 -0.563617
28 3 0.876256 3.88767 6.00195 0.428423 -0.889273 -1.61521
29 3 1.04475 1.28594 5.64912 0.374495 -0.0654471 0.922108
30 3 1.60279 2.78295 3.70626 0.111423 0.385715 -1.27454
31 3 1.74923 6.26941 3.40222 -0.0490843 0.659663 0.555219
32 3 2.30433 0.876055 8.03849 -0.482144 0.174809 0.183962
33 3 2.02943 4.58695 8.31794 2.42773 -0.222754 1.18998
34 3 2.84702 4.66954 1.28376 -1.73547 -0.00336887 -1.71311
35 3 2.9401 1.1629 1.15049 -1.0423 -0.332663 -0.384163
36 3 3.46597 3.01436 5.75018 -2.09669 -0.840474 -0.302619
37 3 3.44442 -1.32155 5.62024 -0.0251445 1.86231 0.84697
38 3 4.12106 0.563588 3.65827 -0.531848 -0.590505 0.556083
39 3 4.27978 5.30074 3.41519 0.829427 -0.324637 -1.15368
40 3 4.44188 2.85311 2.63593 0.120995 0.260679 -0.589962
41 3 5.27404 0.819018 8.33607 0.700045 0.120355 -0.951235
42 3 5.15344 4.71163 8.08089 0.890439 0.371518 -0.358786
43 3 5.41408 4.68294 0.949711 0.904893 0.0495645 -0.0248998
44 3 5.5434 0.762026 1.34851 -0.91273 0.704305 0.665155
45 3 6.33498 2.73748 6.95702 0.437868 0.104009 -0.567224
46 3 6.66582 0.37066 5.85553 -0.314361 0.0771428 0.666125
47 3 6.60931 5.04204 5.83094 -0.360012 -0.357402 -0.470391
48 3 7.02513 6.30453 3.63083 1.12062 0.484922 -0.176598
49 3 7.46215 2.78084 3.73207 0.834851 0.00981021 -0.415554
50 3 7.91605 0.862819 8.25446 -0.655632 0.807895 -0.266195
51 3 7.89479 4.61953 8.25972 -1.68845 -0.490822 -0.998428
52 3 8.49119 4.68432 1.20542 -0.756109 -0.40205 -0.780288
53 3 8.52188 0.919118 1.26816 0.184103 0.669426 -0.469185
54 3 9.04488 -0.839644 5.67635 0.516116 -0.0971314 0.0735017
55 3 9.33119 2.77447 5.7487 -0.208162 0.109919 -0.341103
56 3 9.95828 1.66569 3.43341 0.276935 0.305314 1.09185
57 3 9.68259 4.24215 3.56826 1.28333 1.02573 -0.214096
58 3 9.85222 6.54016 2.59892 0.98236 0.267733 -0.297659
59 2 0.699431 2.45903 3.56189 -0.560068 -0.359647 -0.0741761
60 2 3.66155 5.16401 5.69159 0.48603 -1.62385 0.24678
61 2 6.10402 6.10075 3.47578 -1.4927 -0.469718 0.0963701
62 2 9.67254 1.87366 5.80807 0.440717 -0.739699 0.542712
