ITEM: TIMESTEP
5119
ITEM: NUMBER OF ATOMS
88
ITEM: BOX BOUNDS xy xz yz pp pp pp
-1.8994829126696366e-02 9.7979311332963963e+00 2.6795658571722796e+00
-2.8859147308737493e-01 6.2020819763092083e+00 2.9567044699737222e-01
-6.2552379596175101e-02 2.2467998736596076e+01 -2.7132447077813465e-01
ITEM: ATOMS id type x y z fx fy fz
1 4 8.62812 4.62703 9.83158 -1.73061 -0.0892552 -0.0385563
2 4 8.69391 4.29448 13.0543 -1.3142 -0.237874 -1.25376
3 4 3.19024 5.94673 3.83268 -1.17786 -0.640218 -2.22014
4 4 3.53449 5.51479 19.0493 -0.824795 1.12312 1.06313
5 4 5.12229 4.61317 1.80817 -0.47058 -1.49838 1.69981
6 4 5.66533 2.36858 3.75341 -0.788015 -1.28543 -1.18986
7 4 5.44696 4.12001 21.1343 -0.0763984 1.74117 0.729402
8 4 5.8725 1.90826 19.1459 1.23423 -1.86268 0.695287
9 4 6.8232 6.07021 7.93456 -0.616326 1.55421 1.23693
10 4 6.85531 5.71141 15.06 -0.644597 -1.62171 -1.16265
11 4 2.378 2.49636 7.70213 -1.08786 -2.82394 0.914652
12 4 2.38713 1.99601 15.0297 1.62271 1.63785 0.550127
13 3 5.39774 -0.019902 15.9472 0.61838 -0.121918 0.313995
14 3 8.52639 4.19838 11.4014 0.29005 -0.0851572 1.36201
15 3 2.25889 4.95512 4.68395 -0.731378 -0.0618831 0.382186
16 3 8.75207 4.25901 22.3759 -1.40151 0.219266 1.57034
17 3 2.49654 4.55949 18.2416 0.385706 0.423995 0.211297
18 3 3.4302 3.35508 6.93445 0.771798 1.47725 -0.901946
19 3 3.10219 5.47401 9.48384 0.620757 0.331075 -0.534546
20 3 3.7391 5.13936 2.45929 -0.143225 1.03945 -0.228904
21 3 3.10592 5.22379 13.4691 0.172314 0.23153 0.662303
22 3 3.4162 2.91315 15.9752 -0.996987 -0.752303 -0.886459
23 3 3.94481 1.28758 0.496191 -1.17757 0.0824212 0.316911
24 3 4.4229 1.83726 4.63449 -0.346987 0.0691639 0.468803
25 3 4.12555 4.78498 20.468 -0.0282597 0.386983 -0.892251
26 3 3.95671 1.96279 11.256 -0.0976781 -0.133162 -0.0932248
27 3 4.54667 1.33544 18.4359 0.150521 0.761239 0.0317374
28 3 4.97947 4.4567 0.22577 -0.0403106 0.0602614 -1.41045
29 3 5.45961 0.373822 7.18438 0.403867 -0.279823 -0.500621
30 3 5.1155 3.00649 2.32224 0.761112 1.15893 -0.547796
31 3 5.91414 5.10245 7.01948 -0.025017 -0.50071 -0.0126381
32 3 5.37652 5.61324 11.9354 -0.540458 -0.19403 0.411467
33 3 5.70014 3.01607 9.27031 -0.244628 0.486082 -0.229126
34 3 5.54451 2.60225 20.6409 0.0033446 -1.04475 -0.0159533
35 3 6.0471 1.94844 13.6455 0.432429 0.543729 0.592505
36 3 6.66154 3.33946 4.49047 0.429884 0.989157 1.16338
37 3 5.90664 4.68134 15.868 0.0786454 -0.171705 0.26681
38 3 6.49055 5.45198 2.28244 -0.710946 -0.498734 0.0770886
39 3 6.45282 1.01164 3.22075 0.830485 -0.919299 0.119964
40 3 6.84255 0.617481 19.7307 -0.107062 -0.155221 -1.08669
41 3 6.78344 2.84867 18.2235 -0.0538895 0.615396 -0.290226
42 3 6.795 4.99325 20.7432 -0.874838 0.289454 -0.920788
43 3 7.20795 5.45029 9.46581 0.602944 -0.669743 -0.306223
44 3 7.29751 1.28118 -0.0739399 -0.949283 1.27627 -0.539287
45 3 1.14693 1.96953 6.71659 0.667942 0.324732 1.45053
46 3 7.31728 4.95693 13.6199 0.569214 -0.0011146 0.545618
47 3 1.05092 1.56989 15.7629 -0.0668124 -0.393289 0.567896
48 3 1.7412 0.0994717 4.71952 2.1522 1.09161 0.900593
49 3 7.02735 1.45104 10.7912 -0.132937 -1.11294 0.71562
50 3 1.71713 3.22356 9.0251 0.26756 0.189056 0.149006
51 3 2.02384 2.32377 2.30637 0.332247 -1.15109 -1.72015
52 3 2.03156 -0.108972 18.0683 -0.513568 -0.721562 0.588535
53 3 2.05944 2.76554 13.5844 -0.207962 0.234494 -0.422533
54 3 2.72022 2.08172 20.5441 1.6065 1.03729 -1.99601
55 3 3.2038 1.17862 8.41106 -0.499412 -0.0257524 -0.566288
56 3 3.18542 0.661953 14.4924 0.0793709 0.225063 -0.503625
57 2 8.42184 3.89855 0.618639 0.29418 0.561477 -0.690953
58 2 2.81052 1.92527 1.77282 -1.49262 0.866535 0.88277
59 2 2.65061 4.05763 21.8203 1.34174 -0.558606 -0.757349
60 2 3.68874 1.97007 20.7078 -0.639016 -0.0829254 0.180651
61 2 3.22119 2.43963 11.6723 0.00488157 0.366953 0.278716
62 2 4.71227 1.76269 0.804415 1.15467 0.998311 0.658177
63 2 3.78258 5.24669 12.763 1.13363 0.396556 -0.423047
64 2 4.57217 0.30497 22.4877 0.230589 -1.02407 -0.974611
65 2 5.47211 1.61272 12.9719 -1.28647 -0.406812 -1.06738
66 2 3.47794 1.20274 10.861 0.498312 -0.25142 -0.301343
67 2 4.95336 2.89042 9.90178 -0.429667 0.153011 -0.0647138
68 2 5.55766 6.29173 12.6214 -0.133484 0.303918 -0.0693098
69 2 5.92163 4.90406 12.3459 0.0418505 -0.0642647 -0.427878
70 2 6.02672 3.95716 9.32467 -0.19511 -0.375526 0.338198
71 2 6.89723 1.97004 13.1773 0.35736 0.022598 0.139637
72 2 0.109258 0.402587 0.160106 -0.0693655 -0.248512 -0.123022
73 2 6.89 1.44169 21.8569 1.16069 -0.995441 0.841037
74 2 7.61611 4.62607 21.1225 0.572348 -0.245455 0.580403
75 2 0.361603 0.182902 9.91076 0.23791 -0.0341187 0.236423
76 2 8.06155 1.87552 1.88207 0.930883 0.538736 0.550565
77 2 1.04043 1.85458 10.6541 0.963888 0.463825 -0.0998744
78 2 6.46212 2.01775 10.217 -0.246067 0.495325 -0.429716
79 2 2.2291 1.74977 21.2622 -1.29576 -1.26384 2.06352
80 2 6.59159 6.33425 1.84446 0.0123252 -0.18312 -0.111046
81 1 3.56848 5.71409 6.79208 -0.250543 0.159591 0.202933
82 1 3.63189 5.42243 15.9918 -0.128479 -0.547924 0.0999665
83 1 5.61939 2.66925 6.76153 0.379729 -0.0419798 -0.0149102
84 1 5.74857 2.23959 16.0317 -0.19713 0.921033 0.0884415
85 1 6.86805 5.69451 4.90007 -0.0485826 -0.0567269 -0.423624
86 1 6.9696 5.38152 17.9516 0.261627 -0.947517 0.581684
87 1 2.09164 2.61849 4.75361 0.406283 0.0975331 -0.686357
88 1 2.30392 2.20905 18.2083 -0.0328389 0.436271 -0.345223
