ITEM: TIMESTEP
5043
ITEM: NUMBER OF ATOMS
62
ITEM: BOX BOUNDS xy xz yz pp pp pp
-3.2772902378507196e-01 1.1114968230615037e+01 -1.7419075194931100e-01
-1.9248619501204240e+00 7.4513555613175546e+00 -1.5353827183576099e-01
0.0000000000000000e+00 9.3746985947160670e+00 -1.9248619501204240e+00
ITEM: ATOMS id type x y z fx fy fz
1 1 -0.0390091 -0.49293 4.65012 -0.50582 -0.0831825 -0.0198433
2 1 1.59798 2.70198 0.995143 -0.469785 1.09543 0.087722
3 1 1.43928 6.57348 1.1628 0.30887 -0.894978 0.206842
4 1 3.70739 -1.11928 8.26949 0.482609 0.0425636 0.033889
5 1 3.76937 2.71041 8.29104 -0.373605 -0.591596 -0.186112
6 1 5.14666 3.19929 4.74778 1.1665 -0.0582948 0.011023
7 1 6.98047 2.72116 1.07725 0.572218 0.839426 0.0115993
8 1 7.04603 6.55604 1.14694 -0.51102 0.0203837 0.0943415
9 1 9.19169 -1.01085 8.11331 0.881196 0.697392 -0.0737533
10 1 9.39193 2.6783 8.46993 -0.111957 -0.278773 -0.880028
11 4 0.817511 4.81166 7.28346 -1.65673 0.0815957 -0.0131681
12 4 1.00994 0.587452 7.2543 -0.0247201 1.36673 1.23888
13 4 1.72671 2.83241 5.26186 1.69758 -1.28266 0.19731
14 4 3.34034 6.47574 4.02114 -1.00732 0.560585 1.44309
15 4 4.31517 4.37219 2.09712 0.600799 -0.595992 -1.6757
16 4 4.41318 1.15834 2.11973 -1.01352 1.17656 -0.946447
17 4 6.45382 1.05161 7.25729 0.887175 1.14191 0.293055
18 4 6.41225 4.31853 7.38016 -0.180185 -0.658149 -0.658114
19 4 7.37853 -1.02028 5.28883 2.34157 -1.02951 0.116081
20 4 8.92571 2.83299 4.03201 -1.58424 -0.333937 -0.0174543
21 4 9.8687 4.95911 2.05012 -0.442475 -0.367593 0.335793
22 4 9.99345 0.742298 1.94109 -1.97853 -0.211377 3.48487
23 3 10.5534 4.54485 8.09747 0.557424 0.691754 -0.384487
24 3 10.8376 0.967471 8.17633 0.38706 -0.615791 -0.674821
25 3 0.270192 0.942116 1.32503 1.65499 0.292801 -1.25014
26 3 11.2519 4.6904 1.30938 0.141434 -0.468739 -0.404073
27 3 0.90524 -0.979051 6.76864 0.222096 -1.82651 -0.0583137
28 3 0.774173 4.01877 5.7875 -0.584057 1.4396 1.67764
29 3 1.055 1.38048 5.76816 -0.367136 -0.489853 0.568117
30 3 1.41768 2.84833 3.66268 -1.15118 1.10557 -1.58973
31 3 1.76631 6.40234 3.61443 1.2123 0.396768 0.0845736
32 3 2.35198 0.812192 8.12571 -0.0607824 -0.121085 0.168558
33 3 2.05449 4.39334 8.22572 0.463524 0.877378 -0.228382
34 3 2.98688 4.5578 1.23501 -0.0457166 0.443942 -0.886989
35 3 3.07391 0.975139 1.23809 -0.0685989 -0.648267 -0.634015
36 3 3.27641 2.88547 5.74262 -1.26929 -0.0764448 0.112271
37 3 3.7853 -0.909323 5.71508 0.0162383 0.088556 -0.920692
38 3 4.38503 0.354782 3.50274 -0.554013 -1.22929 1.27084
39 3 4.17201 5.13805 3.53056 0.4459 -0.016177 0.618421
40 3 4.41621 2.76366 2.58421 0.247737 0.622483 0.530501
41 3 5.19436 0.546216 8.07014 -0.805694 0.48565 0.455089
42 3 5.00709 4.56406 8.14996 0.808637 0.529528 -0.276995
43 3 5.69188 4.69636 1.26456 -0.969938 -0.0775445 0.466069
44 3 5.70822 0.930774 1.2657 1.28168 -1.16225 -0.574204
45 3 6.27424 2.69292 6.84546 -0.313067 0.0385782 -0.0143587
46 3 6.46259 0.235961 5.80969 0.0648544 0.142397 -0.728514
47 3 6.45847 5.03389 5.82949 -0.354276 -0.210425 1.14692
48 3 7.10809 6.12551 3.61899 -0.099503 0.864692 0.620404
49 3 7.32638 2.92305 3.624 1.50522 -0.00411551 -0.0578786
50 3 7.79589 0.956507 8.13518 0.188519 -0.457657 0.177147
51 3 7.7278 4.6279 8.27236 -0.98481 -0.55984 -0.0437355
52 3 8.58183 4.60631 1.10595 0.177098 0.762694 1.00305
53 3 8.70095 1.15909 1.10124 -0.0918579 -1.13138 -0.354525
54 3 8.93756 -0.99166 5.85332 -1.3526 0.448874 -1.03343
55 3 9.09567 2.76267 5.70855 1.51239 0.535193 -0.647655
56 3 9.87159 1.54611 3.49327 -0.404375 -0.811333 -1.00044
57 3 9.81842 4.14163 3.49764 -0.11039 -0.102823 0.17552
58 3 9.8937 6.54695 2.61032 -0.683834 1.33338 -1.10952
59 2 0.601034 3.44931 3.4672 1.3619 -1.00212 0.467642
60 2 4.62932 -0.403037 5.83521 -0.187702 -0.11675 -0.0477693
61 2 7.2313 5.15638 3.54933 0.00638148 -0.482352 -0.147523
62 2 10.0673 3.03238 5.76399 -0.875166 -0.125622 0.441544
