LAMMPS (29 Sep 2021 - Update 2)
OMP_NUM_THREADS environment is not set. Defaulting to 1 thread. (src/comm.cpp:98)
  using 1 OpenMP thread(s) per MPI task

units	metal
atom_style atomic
boundary    p p p
newton off
#neighbor 1.0 bin
neigh_modify delay 0 every 1 check yes
#neigh_modify once no every 1 delay 0 check yes

box tilt large
read_data tob14_ref_deepmd.data
Reading data file ...
  triclinic box = (0.0000000 0.0000000 0.0000000) to (6.9541015 6.3530143 28.422936) with tilt (2.6303553 0.54033995 1.3928068)
  1 by 1 by 1 MPI processor grid
  reading atoms ...
  104 atoms
  read_data CPU = 0.001 seconds

pair_style	nequip
pair_coeff	* * tob14_l3-deployed.pth Ca Si O H
mass            1 40.079800
mass            2 28.08500
mass            3 15.9994
mass            4 1.00794


#kspace_style    ewald 1.0e-6

velocity all create 300 4928459 rot yes dist gaussian #温度初始化
timestep 0.001

thermo 100
thermo_style  custom step temp press etotal lx ly lz xy xz yz pxx pyy pzz

min_style cg
minimize 1.0e-15 1.0e-15 100000 100000
Neighbor list info ...
  update every 1 steps, delay 0 steps, check yes
  max neighbors/atom: 2000, page size: 100000
  master list distance cutoff = 6
  ghost atom cutoff = 6
  binsize = 3, bins = 4 3 10
  1 neighbor lists, perpetual/occasional/extra = 1 0 0
  (1) pair nequip, perpetual
      attributes: full, newton off
      pair build: full/bin/atomonly
      stencil: full/bin/3d
      bin: standard
Per MPI rank memory allocation (min/avg/max) = 4.220 | 4.220 | 4.220 Mbytes
Step Temp Press TotEng Lx Ly Lz Xy Xz Yz Pxx Pyy Pzz 
       0          300   -42317.274   -652.07471    6.9541015    6.3530143    28.422936    2.6303553   0.54033995    1.3928068   -44350.038   -54562.341   -28039.442 
     100          300   -30960.046   -659.51599    6.9541015    6.3530143    28.422936    2.6303553   0.54033995    1.3928068   -33444.186   -39337.275   -20098.676 
     200          300   -32535.039   -659.73084    6.9541015    6.3530143    28.422936    2.6303553   0.54033995    1.3928068   -34336.121   -42210.432   -21058.564 
     230          300   -32381.159   -659.74481    6.9541015    6.3530143    28.422936    2.6303553   0.54033995    1.3928068   -34108.413   -41813.535   -21221.531 
Loop time of 126.404 on 1 procs for 230 steps with 104 atoms

99.8% CPU use with 1 MPI tasks x 1 OpenMP threads

Minimization stats:
  Stopping criterion = energy tolerance
  Energy initial, next-to-last, final = 
      -656.06884765625  -663.738952636719  -663.738952636719
  Force two-norm initial, final = 18.141591 0.085263989
  Force max component initial, final = 3.8508694 0.019234998
  Final line search alpha, max atom move = 0.91086074 0.017520405
  Iterations, force evaluations = 230 462

MPI task timing breakdown:
Section |  min time  |  avg time  |  max time  |%varavg| %total
---------------------------------------------------------------
Pair    | 126.4      | 126.4      | 126.4      |   0.0 | 99.99
Neigh   | 0.0026891  | 0.0026891  | 0.0026891  |   0.0 |  0.00
Comm    | 0.0022504  | 0.0022504  | 0.0022504  |   0.0 |  0.00
Output  | 0.00016022 | 0.00016022 | 0.00016022 |   0.0 |  0.00
Modify  | 0          | 0          | 0          |   0.0 |  0.00
Other   |            | 0.003262   |            |       |  0.00

Nlocal:        104.000 ave         104 max         104 min
Histogram: 1 0 0 0 0 0 0 0 0 0
Nghost:        1154.00 ave        1154 max        1154 min
Histogram: 1 0 0 0 0 0 0 0 0 0
Neighs:         0.00000 ave           0 max           0 min
Histogram: 1 0 0 0 0 0 0 0 0 0
FullNghs:      7548.00 ave        7548 max        7548 min
Histogram: 1 0 0 0 0 0 0 0 0 0

Total # of neighbors = 7548
Ave neighs/atom = 72.576923
Neighbor list builds = 3
Dangerous builds = 0

fix 4 all nve
fix 5 all langevin 300.0 300.0 0.1 12345

run 5000
Per MPI rank memory allocation (min/avg/max) = 3.095 | 3.095 | 3.095 Mbytes
Step Temp Press TotEng Lx Ly Lz Xy Xz Yz Pxx Pyy Pzz 
     230          300   -32381.163   -659.74481    6.9541015    6.3530143    28.422936    2.6303553   0.54033995    1.3928068   -34108.425   -41813.535   -21221.531 
     300     242.8359   -29609.001   -657.72525    6.9541015    6.3530143    28.422936    2.6303553   0.54033995    1.3928068   -31104.564   -40915.356   -16807.083 
     400    295.25766   -28262.775   -655.98959    6.9541015    6.3530143    28.422936    2.6303553   0.54033995    1.3928068   -25361.528   -35810.484   -23616.311 
     500    292.00079   -31830.925   -655.50183    6.9541015    6.3530143    28.422936    2.6303553   0.54033995    1.3928068   -30943.122   -40088.499   -24461.154 
     600    286.13943   -24374.455   -655.81363    6.9541015    6.3530143    28.422936    2.6303553   0.54033995    1.3928068    -24471.07   -26636.098   -22016.195 
     700    278.00593    -27826.39   -655.31834    6.9541015    6.3530143    28.422936    2.6303553   0.54033995    1.3928068   -34273.722   -37047.905   -12157.544 
     800    296.85852    -22651.73   -655.69686    6.9541015    6.3530143    28.422936    2.6303553   0.54033995    1.3928068   -17046.968   -35415.878   -15492.345 
     900    325.54813    -23233.87   -655.05219    6.9541015    6.3530143    28.422936    2.6303553   0.54033995    1.3928068   -33216.322   -22498.888   -13986.399 
    1000    312.38596   -25711.836   -655.31343    6.9541015    6.3530143    28.422936    2.6303553   0.54033995    1.3928068   -29100.237    -34731.88   -13303.393 
    1100    291.79629   -30687.223   -655.77213    6.9541015    6.3530143    28.422936    2.6303553   0.54033995    1.3928068   -32636.799    -43677.66   -15747.211 
    1200    302.85626   -37477.436   -655.64819    6.9541015    6.3530143    28.422936    2.6303553   0.54033995    1.3928068   -43778.088   -42451.984   -26202.235 
    1300    329.66896   -29642.856   -655.47383    6.9541015    6.3530143    28.422936    2.6303553   0.54033995    1.3928068   -37220.282   -36698.067   -15010.218 
    1400    269.18676   -26826.251   -655.95779    6.9541015    6.3530143    28.422936    2.6303553   0.54033995    1.3928068   -34723.356   -35462.122   -10293.276 
    1500    282.70277    -29352.63   -656.05671    6.9541015    6.3530143    28.422936    2.6303553   0.54033995    1.3928068   -38503.668   -40403.356   -9150.8648 
    1600    342.43947   -19128.414   -654.80863    6.9541015    6.3530143    28.422936    2.6303553   0.54033995    1.3928068   -29956.609   -32208.785    4780.1521 
    1700    303.20869   -16791.596   -655.49134    6.9541015    6.3530143    28.422936    2.6303553   0.54033995    1.3928068   -19213.255   -21182.751   -9978.7813 
    1800    272.49018   -28344.158   -656.29442    6.9541015    6.3530143    28.422936    2.6303553   0.54033995    1.3928068   -29542.118   -29451.812   -26038.542 
    1900    290.49282   -22873.346    -655.9818    6.9541015    6.3530143    28.422936    2.6303553   0.54033995    1.3928068   -24075.098    -28903.47    -15641.47 
    2000    332.16071   -24727.917   -655.53856    6.9541015    6.3530143    28.422936    2.6303553   0.54033995    1.3928068   -21587.196   -34790.921   -17805.633 
    2100    290.04846   -15878.801   -655.64421    6.9541015    6.3530143    28.422936    2.6303553   0.54033995    1.3928068   -14018.704   -23608.102   -10009.596 
    2200     295.9038    -24094.47   -655.59415    6.9541015    6.3530143    28.422936    2.6303553   0.54033995    1.3928068   -26410.608   -38469.697   -7403.1055 
    2300    316.34685   -24096.972   -655.51466    6.9541015    6.3530143    28.422936    2.6303553   0.54033995    1.3928068   -27253.891   -32054.669   -12982.356 
    2400    309.74109   -10871.275    -655.9004    6.9541015    6.3530143    28.422936    2.6303553   0.54033995    1.3928068   -13370.909   -20301.355    1058.4384 
    2500    285.94549   -19798.837   -656.58794    6.9541015    6.3530143    28.422936    2.6303553   0.54033995    1.3928068   -9189.7141   -39093.619   -11113.178 
    2600     351.4267   -26234.033   -654.60688    6.9541015    6.3530143    28.422936    2.6303553   0.54033995    1.3928068    -29151.88   -35000.995   -14549.225 
    2700    297.23606   -14641.724   -655.80786    6.9541015    6.3530143    28.422936    2.6303553   0.54033995    1.3928068   -19349.552   -27604.271    3028.6508 
    2800    319.29288   -19059.235   -655.91111    6.9541015    6.3530143    28.422936    2.6303553   0.54033995    1.3928068   -20296.997   -38853.911    1973.2034 
    2900    343.06704   -10737.499   -655.28868    6.9541015    6.3530143    28.422936    2.6303553   0.54033995    1.3928068    -18182.15   -24757.433    10727.086 
    3000    332.67228   -15632.982   -655.74934    6.9541015    6.3530143    28.422936    2.6303553   0.54033995    1.3928068   -22096.475   -21524.745    -3277.725 
    3100    291.69665   -19040.367   -656.25081    6.9541015    6.3530143    28.422936    2.6303553   0.54033995    1.3928068   -24687.501   -27572.144   -4861.4551 
    3200    296.75738   -19482.775   -655.97677    6.9541015    6.3530143    28.422936    2.6303553   0.54033995    1.3928068   -23813.257   -29494.492   -5140.5754 
    3300    343.39344   -12148.589   -655.62741    6.9541015    6.3530143    28.422936    2.6303553   0.54033995    1.3928068   -12859.792   -28931.292    5345.3171 
    3400    379.89146   -9518.0908   -655.30139    6.9541015    6.3530143    28.422936    2.6303553   0.54033995    1.3928068   -15553.317   -23274.139    10273.183 
    3500    338.80914   -20867.744   -655.01462    6.9541015    6.3530143    28.422936    2.6303553   0.54033995    1.3928068   -25314.038   -35800.097   -1489.0982 
    3600    265.97885   -24149.711   -656.57679    6.9541015    6.3530143    28.422936    2.6303553   0.54033995    1.3928068   -27173.466   -34645.334   -10630.332 
    3700    303.48346   -26118.163    -656.6869    6.9541015    6.3530143    28.422936    2.6303553   0.54033995    1.3928068   -31656.167    -31169.82   -15528.501 
    3800    287.47773   -15893.238   -656.79349    6.9541015    6.3530143    28.422936    2.6303553   0.54033995    1.3928068   -19599.176   -31559.097    3478.5589 
    3900    289.75271   -21832.563   -655.93026    6.9541015    6.3530143    28.422936    2.6303553   0.54033995    1.3928068   -19410.953   -34103.997    -11982.74 
    4000    294.47035   -13278.008   -656.58601    6.9541015    6.3530143    28.422936    2.6303553   0.54033995    1.3928068   -17047.906   -31763.874    8977.7576 
    4100    281.97917    -25186.75   -656.62836    6.9541015    6.3530143    28.422936    2.6303553   0.54033995    1.3928068   -21118.995   -44978.555   -9462.7013 
    4200    261.00433   -17389.169   -656.73592    6.9541015    6.3530143    28.422936    2.6303553   0.54033995    1.3928068   -21886.847   -34987.854    4707.1939 
    4300    322.95679   -24311.571   -655.68716    6.9541015    6.3530143    28.422936    2.6303553   0.54033995    1.3928068   -24485.751   -37740.161     -10708.8 
    4400    308.95236   -16159.731    -656.0721    6.9541015    6.3530143    28.422936    2.6303553   0.54033995    1.3928068   -16438.815   -29298.597   -2741.7816 
    4500     282.8852   -21054.603   -656.35842    6.9541015    6.3530143    28.422936    2.6303553   0.54033995    1.3928068   -20509.669   -33940.404   -8713.7358 
    4600      307.947   -12484.347   -656.21774    6.9541015    6.3530143    28.422936    2.6303553   0.54033995    1.3928068   -15076.563    -21665.36   -711.11715 
    4700    312.50977   -17383.697   -656.43922    6.9541015    6.3530143    28.422936    2.6303553   0.54033995    1.3928068   -23003.979   -31115.345    1968.2336 
    4800    285.81682   -11108.079   -656.63366    6.9541015    6.3530143    28.422936    2.6303553   0.54033995    1.3928068   -13674.775   -17121.726   -2527.7376 
    4900    300.68664   -22720.228   -656.92567    6.9541015    6.3530143    28.422936    2.6303553   0.54033995    1.3928068    -25023.95   -31083.454    -12053.28 
    5000    313.63139   -8960.5886   -655.74906    6.9541015    6.3530143    28.422936    2.6303553   0.54033995    1.3928068   -11831.591   -16817.358    1767.1831 
    5100    307.19649   -28439.328   -656.47975    6.9541015    6.3530143    28.422936    2.6303553   0.54033995    1.3928068   -35983.984    -37546.33   -11787.672 
    5200    309.47613   -12122.265   -656.25311    6.9541015    6.3530143    28.422936    2.6303553   0.54033995    1.3928068   -14822.669   -30606.253    9062.1263 
    5230    336.63551   -14718.741   -656.02958    6.9541015    6.3530143    28.422936    2.6303553   0.54033995    1.3928068   -20559.577   -27176.854    3580.2093 
Loop time of 1299.33 on 1 procs for 5000 steps with 104 atoms

Performance: 0.332 ns/day, 72.185 hours/ns, 3.848 timesteps/s
100.0% CPU use with 1 MPI tasks x 1 OpenMP threads

MPI task timing breakdown:
Section |  min time  |  avg time  |  max time  |%varavg| %total
---------------------------------------------------------------
Pair    | 1299.2     | 1299.2     | 1299.2     |   0.0 | 99.99
Neigh   | 0.047539   | 0.047539   | 0.047539   |   0.0 |  0.00
Comm    | 0.024005   | 0.024005   | 0.024005   |   0.0 |  0.00
Output  | 0.0032172  | 0.0032172  | 0.0032172  |   0.0 |  0.00
Modify  | 0.068795   | 0.068795   | 0.068795   |   0.0 |  0.01
Other   |            | 0.01134    |            |       |  0.00

Nlocal:        104.000 ave         104 max         104 min
Histogram: 1 0 0 0 0 0 0 0 0 0
Nghost:        1089.00 ave        1089 max        1089 min
Histogram: 1 0 0 0 0 0 0 0 0 0
Neighs:         0.00000 ave           0 max           0 min
Histogram: 1 0 0 0 0 0 0 0 0 0
FullNghs:      7582.00 ave        7582 max        7582 min
Histogram: 1 0 0 0 0 0 0 0 0 0

Total # of neighbors = 7582
Ave neighs/atom = 72.903846
Neighbor list builds = 70
Dangerous builds = 0

unfix 4
unfix 5

fix 1 all npt temp 300 300 0.1 aniso 1.01325 1.01325 1.0




run 10000
Per MPI rank memory allocation (min/avg/max) = 3.111 | 3.111 | 3.111 Mbytes
Step Temp Press TotEng Lx Ly Lz Xy Xz Yz Pxx Pyy Pzz 
    5230    336.63551   -14718.736   -656.02958    6.9541015    6.3530143    28.422936    2.6303553   0.54033995    1.3928068   -20559.565   -27176.857    3580.2128 
    5300    308.65472    1320.9047   -656.47248     6.874664    6.2442352    28.509268    2.5853171   0.54198119    1.3970374   -5474.9981    575.09135    8862.6209 
    5400    294.00605    11498.218   -657.02481    6.7828432    6.0747323     29.10193    2.5151374    0.5532481    1.4260795    12036.134    19174.248    3284.2717 
    5500    270.87723   -2114.7424   -657.26084    6.8452975    6.0816905    29.532525    2.5180184   0.56143402    1.4471799   -4319.7256    933.81027   -2958.3119 
    5600    289.44047   -14443.992   -657.23599    6.8767399    6.1402182    29.218362    2.5422507   0.55546156     1.431785   -23851.446   -5810.4236   -13670.105 
    5700    286.66734    12682.321   -656.82863    6.7850355    6.2086444    28.527319    2.5705814   0.54232436    1.3979219    7174.2021     16271.36    14601.403 
    5800    320.89543   -3347.1529   -656.47657    6.7439623    6.2663548    28.672315    2.5944754   0.54508082    1.4050271    9326.0426   -11875.631   -7491.8699 
    5900    316.04065   -12054.154    -656.6435    6.7733337    6.2156037    28.632688    2.5734628   0.54432749    1.4030853   -10294.664   -18573.412   -7294.3865 
    6000    306.88919   -5871.2129   -656.87612    6.8261521    6.1223971    28.496403    2.5348722   0.54173662    1.3964069   -2131.8619   -5285.6403   -10196.137 
    6100    281.26111   -7420.0378    -657.0106     6.896668    6.1148352     28.47553    2.5317413    0.5413398    1.3953841   -15425.718    2530.8245     -9365.22 
    6200    304.68371   -7419.9408   -657.16878    6.8551713    6.1939432    28.388486    2.5644946   0.53968504    1.3911187   -15050.471   -9835.7489    2626.3978 
    6300    309.74063    11448.166   -657.23885    6.6983648    6.2334487    28.315247    2.5808512   0.53829271    1.3875297    7375.0329    8729.0588    18240.406 
    6400    287.15525    4258.5699   -657.31927    6.7108636    6.2945643    28.823249     2.606155   0.54795018    1.4124233    3805.8092     1580.964    7388.9365 
    6500    261.44961    10324.699   -657.14112    6.7281044     6.231933    29.097279    2.5802237   0.55315968    1.4258516    9453.0409    6125.4689    15395.587 
    6600    333.61869    2019.5674   -656.90837     6.747279    6.1578381    29.248754    2.5495459   0.55603934    1.4332743    15401.029    3311.4342   -12653.761 
    6700    286.50571   -11115.527      -656.96    6.8304114    6.1946842    29.112945    2.5648014   0.55345752    1.4266193   -16245.305   -8335.8485   -8765.4283 
    6800    299.86261   -10010.604    -657.2066    6.7717996    6.2079739    28.649948    2.5703038   0.54465561    1.4039311   -14508.313   -14039.897   -1483.6016 
    6900    311.05792    3731.6069   -657.50488    6.7301842    6.1977105    28.165087    2.5660544   0.53543808    1.3801715    5044.1924    2329.7543    3820.8739 
    7000    258.56124   -1470.5006   -657.96241    6.7942438    6.2481841    28.320736    2.5869521   0.53839706    1.3877987   -1521.8006   -4449.9279    1560.2266 
    7100    305.20083   -4714.0804   -657.66471    6.8046228    6.1962204    28.460854    2.5654375   0.54106081    1.3946649   -8277.1391   -2834.5368   -3030.5653 
    7200    280.37772    9632.1853   -656.94521    6.7483836    6.1612477    28.509048    2.5509576     0.541977    1.3970265    11364.423    11641.325    5890.8078 
    7300    298.31641   -3264.3109   -656.92775    6.7586753    6.2567226    28.657824    2.5904874   0.54480535     1.404317    563.32907   -12515.933    2159.6718 
    7400     276.5273    1976.7444   -656.93049    6.7330348    6.2264904     28.54007    2.5779702   0.54256677    1.3985468    6656.8533   -523.59053   -203.02956 
    7500    307.35339    4165.1364   -656.76062     6.773769    6.1750964    28.520548    2.5566914   0.54219563    1.3975901   -2562.6667    10124.938    4933.1382 
    7600    305.00887   -3840.2373   -657.00845    6.8203344    6.1977358    28.688864    2.5660649   0.54539544    1.4058381    2903.5723   -7662.4624   -6761.8217 
    7700     275.3934    8763.8846   -657.49808    6.7735253    6.1825201    28.630284    2.5597651   0.54428178    1.4029675    6781.5221    10330.529    9179.6022 
    7800    280.98535    718.78047   -657.55229    6.7245033    6.2375068    28.730268    2.5825314   0.54618256     1.407867    11057.232   -10407.625    1506.7343 
    7900    300.01931   -7601.9293   -656.88549    6.7611968    6.2420346    28.742956     2.584406   0.54642376    1.4084887   -9238.7298   -5053.3708   -8513.6872 
    8000    330.36074    125.96398   -656.36532    6.8266818    6.1781128    28.553392    2.5579403   0.54282001    1.3991995   -15232.882    7147.1809    8463.5932 
    8100    315.85174    1842.6832   -656.62093    6.8512871    6.1859788    28.635719    2.5611971   0.54438512    1.4032338    3695.3759    -8362.283    10194.957 
    8200    293.44252    4799.9812    -657.0491    6.7757597    6.1803499    28.905293    2.5588666    0.5495099    1.4164437    15339.881    5211.3255   -6151.2624 
    8300    264.31484    12424.786   -657.07105    6.7629048     6.206284    28.952467    2.5696041   0.55040671    1.4187554    12879.198    12409.966    11985.193 
    8400    295.94808     918.8141   -656.93676    6.7561715    6.2264131     28.97218    2.5779382   0.55078147    1.4197214    3592.9867    916.76359   -1753.3079 
    8500    313.00785    12201.823   -656.81315    6.7288142    6.2033176    28.758971    2.5683759   0.54672823    1.4092735    8833.7965    16594.644    11177.028 
    8600    297.56272   -6214.4786   -657.32023    6.7899405    6.2484689    28.691489    2.5870701   0.54544534    1.4059667   -9800.9917   -6967.9481    -1874.496 
    8700    217.44622   -3137.2686   -657.77031    6.7820197    6.2171447    28.765549    2.5741008   0.54685327    1.4095958    2401.2102   -4850.1293   -6962.8867 
    8800    273.77307     5903.624   -657.36377     6.765938     6.167075    29.130983    2.5533703   0.55380043    1.4275032    6965.6048    10164.962    580.30537 
    8900    336.60514   -1612.4324    -656.8329    6.7580445    6.1616209    29.223011    2.5511121   0.55554996    1.4320129   -2488.2915     3292.145   -5641.1508 
    9000    285.15007   -3765.7236    -657.0273    6.7678687    6.2689784     28.82579    2.5955617    0.5479985    1.4125479    -4918.539   -11197.528     4818.896 
    9100    313.95145   -7699.9089   -656.98998    6.7059021    6.2999198    28.367659    2.6083724   0.53928911    1.3900981   -7265.6068   -7833.7097   -8000.4101 
    9200      300.599    8167.7693   -657.21255    6.7092657    6.2553073    28.240682    2.5899014   0.53687519    1.3838759    6811.2849    3320.6324    14371.391 
    9300     239.3457   -3903.0111   -657.96123    6.8352034    6.2022555    28.385664    2.5679362    0.5396314    1.3909804   -8945.0078   -3132.6657    368.64015 
    9400    249.77308    2975.6132   -657.82563    6.8840015    6.1450394    28.605463    2.5442468   0.54380992    1.4017512    5656.9325    -363.1851    3633.0922 
    9500    325.57559    6626.4047   -657.35865    6.7828887    6.1349882    28.662662    2.5400853   0.54489732    1.4045541    10447.344    9900.6957   -468.82541 
    9600    297.46006   -1190.7703    -657.0561    6.7085784    6.2496851    28.702754    2.5875736   0.54565949    1.4065187   -1825.2405    561.07215   -2308.1425 
    9700     332.4684    1806.3052   -657.01206    6.7007901    6.3261751     28.64512     2.619243   0.54456384    1.4036945   -763.73366   -7476.8592    13659.508 
    9800    287.30125   -5005.9942   -657.08081     6.737534    6.2840343    28.976661    2.6017953   0.55086666     1.419941    1324.2859   -12295.412   -4046.8569 
    9900     302.7848     14670.57   -657.24485    6.7599393    6.1249981    28.812667    2.5359491   0.54774902    1.4119048    11306.212    17917.483    14788.014 
   10000    251.61007   -10973.611   -657.52139    6.8829198    6.1186721    28.925093    2.5333299   0.54988631     1.417414   -16961.331    956.27023   -16915.772 
   10100    270.88771    8869.2001   -657.43417    6.8517325     6.152597    28.593496    2.5473759   0.54358242    1.4011647    2247.3448    4774.9481    19585.307 
   10200    319.94046    10807.976   -656.85659    6.7538968    6.1896714    28.589195    2.5627259   0.54350065     1.400954    17445.539    7863.7036    7114.6853 
   10300    308.82391   -4873.7031   -656.64442    6.7560926     6.233548    28.991323    2.5808923    0.5511454    1.4206594   -1453.5045   -226.23688   -12941.368 
   10400    284.37287    3854.7853   -657.08526    6.7671488     6.168485    29.117016    2.5539541   0.55353491    1.4268188    1809.9524    5326.3967    4428.0067 
   10500    293.04305    5459.2056   -657.80961    6.7707996    6.1337532    28.909657     2.539574   0.54959287    1.4166576     9017.831    5855.5052    1504.2806 
   10600    272.15365    764.22943   -657.82869     6.761163    6.2081134     28.52387    2.5703615   0.54225878    1.3977529    5525.0866    -2119.673   -1112.7253 
   10700    260.48386   -5655.7811   -657.36382    6.7671099     6.243497    28.421409    2.5850115   0.54031093     1.392732     -773.203   -9326.6536   -6867.4867 
   10800    298.00218   -4248.2277   -656.99389    6.8206001    6.1934048    28.543535    2.5642717   0.54263262    1.3987165   -4218.5853   -7972.4788   -553.61898 
   10900     320.3629    1023.6826    -657.0226    6.8380254    6.1204813    28.996116     2.534079   0.55123651    1.4208943   -3796.7536    6011.1115    856.68998 
   11000    291.53293    1971.1704   -657.06854    6.7982755    6.1228025    29.105467      2.53504   0.55331536    1.4262529    7019.6754    110.56781   -1216.7319 
   11100    242.93097    2729.9952   -657.55577    6.7734013    6.1904173     28.70747    2.5630348   0.54574915    1.4067498    9008.6083   -1772.6801     954.0572 
   11200    254.77971   -234.90412   -658.11384    6.8071765    6.2181047    28.570365    2.5744983   0.54314268    1.4000313    1746.6376   -1993.5821   -457.76789 
   11300     284.6278    3731.8442   -657.89723    6.7952504    6.2230993    28.764296    2.5765662   0.54682945    1.4095345    327.18307    770.03844    10098.311 
   11400    318.66666   -1471.0708   -657.12306    6.7078607    6.2147478    29.131533    2.5731084   0.55381088    1.4275301    14897.175   -5152.8713   -14157.516 
   11500    311.39607    12629.286    -656.9593    6.7252683    6.1568109    28.781924    2.5491206   0.54716457    1.4103983    19480.069    17792.401    615.38695 
   11600    278.43443    -5431.967   -657.00239    6.8633158    6.2147066    28.521082    2.5730913   0.54220577    1.3976162   -9863.2273   -602.10122   -5830.5724 
   11700    287.19654   -11799.196   -657.21465    6.8391249     6.213125    28.497741    2.5724365   0.54176205    1.3964725   -18033.023   -8032.7534   -9331.8132 
   11800    277.26958     1234.275   -657.67415    6.6975009    6.1530677    28.709217    2.5475708   0.54578236    1.4068354    5328.5242   -4367.8236    2742.1242 
   11900    240.44124   -2237.5844   -658.01933    6.7626814    6.2253589    29.135778    2.5775018   0.55389158    1.4277382    9192.9346   -13585.286   -2320.4015 
   12000    300.94275     669.8643   -657.23519    6.8783979    6.2028852    28.974581    2.5681969   0.55082712     1.419839   -11636.485    4801.6424    8844.4357 
   12100    341.47859    16988.032   -656.68129    6.7699852    6.1376307    28.739656    2.5411794   0.54636103     1.408327    30123.984    12942.032    7898.0794 
   12200    292.16886   -2396.8399   -656.87624    6.7603753    6.1870056    28.904935    2.5616222    0.5495031    1.4164262    8779.5645   -3098.4743    -12871.61 
   12300    302.77471     10652.19   -657.27641    6.7916669    6.1875746    28.871891    2.5618578   0.54887491    1.4148069    10978.956    6326.1502    14651.463 
   12400    273.47083    3570.8756   -657.49237    6.7823844     6.174798    28.937623    2.5565679   0.55012453     1.418028    837.05787    2060.0177    7815.5512 
   12500    303.89354   -850.41703   -656.92155     6.752785    6.1337722    28.936777    2.5395819   0.55010844    1.4179866    7878.0071   -4727.7708   -5701.4874 
   12600    334.88102   -6333.0308   -656.25484    6.8036217    6.1082153    28.685727    2.5290005    0.5453358    1.4056844   -5989.7766   -2248.0743   -10761.242 
   12700    309.29289   -10025.631    -656.4851    6.8329487    6.2021445    28.587145    2.5678902   0.54346168    1.4008535   -17390.685   -12432.135   -254.07172 
   12800    308.61224   -1083.3487   -657.07406    6.7347697     6.223011    28.430272    2.5765296   0.54047942    1.3931663   -2104.8104    682.24092   -1827.4765 
   12900    270.06013    3159.9271   -657.48138     6.726205    6.1946223    28.197934    2.5647758   0.53606251    1.3817811    5149.9495    10939.424   -6609.5923 
   13000    283.33117   -1220.9667   -657.24445    6.8273123    6.1945304    28.106172    2.5647377   0.53431806    1.3772845    -4599.894    1342.7667   -405.77276 
   13100     313.2816    487.40886   -657.00475    6.8640449    6.1394209    28.004432    2.5419206    0.5323839    1.3722989 -0.056290657    946.29618     515.9867 
   13200    343.67154    7297.6728    -656.8806    6.8531676     6.090195    28.092095    2.5215395   0.53405044    1.3765947    389.37013    9632.8726    11870.776 
   13300    302.59091    2928.9235   -657.16814     6.841134    6.1576918    28.321723    2.5494854   0.53841583    1.3878471    4384.5743    8853.8429   -4451.6466 
   13400    329.60012   -9683.3136   -657.23805    6.8033501    6.1896883    28.556606    2.5627329   0.54288111     1.399357   -4731.9134   -10871.327   -13446.701 
   13500    312.87282    865.82702    -656.6167    6.7606113    6.1559351     28.41496     2.548758   0.54018833     1.392416    2392.8161   -3943.4718    4148.1368 
   13600    322.15198   -3210.0651   -656.06018    6.8015516    6.1746251    28.283882    2.5564963   0.53769645    1.3859928    2145.1062   -7813.6628   -3961.6388 
   13700    307.25663   -191.30139   -656.31452    6.8455227    6.1562125    28.314887    2.5488729   0.53828587    1.3875121    1629.0614   -777.92487   -1425.0407 
   13800     276.8982   -2930.9714   -656.85439    6.8185569    6.1061486    28.472092    2.5281448   0.54127445    1.3952156   -6149.4092    903.83905   -3547.3441 
   13900    280.25403    5171.9247   -657.11238    6.7955211    6.1118628    28.422201    2.5305107   0.54032599    1.3927708    8105.1186    6542.1126    868.54272 
   14000    273.77576   -9135.5128   -657.03573      6.85164    6.1384535    28.110839    2.5415201   0.53440678    1.3775132   -6733.3276   -11464.351   -9208.8594 
   14100    276.63316    4254.3925   -656.91578    6.8677742    6.1308672    27.683011    2.5383791   0.52627346    1.3565483     7197.889    734.13205    4831.1563 
   14200    300.37957   -5981.1367   -656.94459    6.8461092    6.1407384    27.803055    2.5424661   0.52855558    1.3624308   -3426.0711   -11319.672   -3197.6671 
   14300    255.53218   -2211.0098   -657.07647    6.7886678    6.1559262    28.022708    2.5487543   0.53273134    1.3731945   -4313.4673    1874.5825   -4194.1447 
   14400    298.69462   -7727.3163   -657.17046    6.7908612    6.2149822    28.212605    2.5732054   0.53634141       1.3825   -4501.2889   -16693.706   -1986.9539 
   14500     320.9181    7316.5107   -656.98804    6.8115421    6.1130911    28.274411    2.5310192   0.53751639    1.3855287    5573.8032    18403.766    -2028.037 
   14600    305.08395    137.10666   -656.41547    6.8788916    6.0635354    28.435138    2.5105015   0.54057193    1.3934048    1556.2764    14999.791   -16144.747 
   14700    306.06664    -1144.767     -656.111    6.8883061    6.1116802    28.188451     2.530435   0.53588224    1.3813164   -1423.5439   -2921.3007     910.5436 
   14800    347.20944   -3519.6135   -656.25666     6.812364    6.1777688    28.062139    2.5577979   0.53348096    1.3751267   -5488.5928   -3941.1086    -1129.139 
   14900    287.36871   -4038.6521   -657.19411    6.7633658    6.1736194     28.29571    2.5560799   0.53792131    1.3865724    -4700.681   -11291.124    3875.8486 
   15000    288.52915    2235.5973   -657.30226    6.8059485    6.0670805    28.367938    2.5119693    0.5392944    1.3901117    7806.6155    2624.5708   -3724.3944 
   15100    283.01228   -5058.6395   -657.18211    6.9242499    6.0582926    28.264921    2.5083309   0.53733598    1.3850636   -8669.0999    4479.9903   -10986.809 
   15200    316.89546   -3173.9295   -656.64328    6.8978398    6.1165321    28.071919    2.5324439   0.53366689     1.375606   -6847.5676   -2040.7725   -633.44838 
   15230    345.75026   -605.96608   -656.38454    6.8706344    6.1380109    28.027835    2.5413368   0.53282881    1.3734457    4591.7362   -12291.811    5882.1763 
Loop time of 2740.79 on 1 procs for 10000 steps with 104 atoms

Performance: 0.315 ns/day, 76.133 hours/ns, 3.649 timesteps/s
100.0% CPU use with 1 MPI tasks x 1 OpenMP threads

MPI task timing breakdown:
Section |  min time  |  avg time  |  max time  |%varavg| %total
---------------------------------------------------------------
Pair    | 2740.4     | 2740.4     | 2740.4     |   0.0 | 99.98
Neigh   | 0.15557    | 0.15557    | 0.15557    |   0.0 |  0.01
Comm    | 0.05787    | 0.05787    | 0.05787    |   0.0 |  0.00
Output  | 0.0074749  | 0.0074749  | 0.0074749  |   0.0 |  0.00
Modify  | 0.16677    | 0.16677    | 0.16677    |   0.0 |  0.01
Other   |            | 0.03155    |            |       |  0.00

Nlocal:        104.000 ave         104 max         104 min
Histogram: 1 0 0 0 0 0 0 0 0 0
Nghost:        1136.00 ave        1136 max        1136 min
Histogram: 1 0 0 0 0 0 0 0 0 0
Neighs:         0.00000 ave           0 max           0 min
Histogram: 1 0 0 0 0 0 0 0 0 0
FullNghs:      8148.00 ave        8148 max        8148 min
Histogram: 1 0 0 0 0 0 0 0 0 0

Total # of neighbors = 8148
Ave neighs/atom = 78.346154
Neighbor list builds = 185
Dangerous builds = 0

write_dump all custom output-tob14_nequip.dump id type x y z fx fy fz
Total wall time: 1:09:33
