ITEM: TIMESTEP
15230
ITEM: NUMBER OF ATOMS
104
ITEM: BOX BOUNDS xy xz yz pp pp pp
4.1733525783464120e-02 9.9865335952115579e+00 2.5413368142368800e+00
1.0750171520747065e-01 7.6189583129147058e+00 5.3282881421282391e-01
1.9755026449401214e-01 2.8225385394200554e+01 1.3734457296390843e+00
ITEM: ATOMS id type x y z fx fy fz
1 1 7.1949 1.79508 17.495 0.0183858 0.199747 -0.188169
2 1 7.1074 1.81456 25.5066 -0.279224 0.631794 0.283859
3 1 3.00086 1.28335 11.3764 -0.204997 -0.00228253 -0.155267
4 1 4.7802 4.94894 25.3852 -0.0133321 -0.558011 0.58705
5 1 3.53887 1.94827 23.7036 -0.0471792 0.082223 -0.435046
6 1 7.57312 4.20547 11.6436 0.0855254 0.324093 0.13498
7 1 8.09256 3.97038 3.78683 0.734006 -0.316226 -0.0805069
8 1 6.34641 1.27235 9.36682 -0.0342715 -1.00423 0.128826
9 1 8.3417 5.16405 23.3576 0.0763433 -0.740787 0.109498
10 1 4.40525 4.39812 9.34793 -0.193993 -0.217418 0.0893806
11 2 5.87186 3.47561 14.5259 2.6577 -1.90408 1.95802
12 2 6.92827 2.1461 22.4039 0.351273 0.422308 -0.537245
13 2 4.48716 6.9604 20.3681 0.918963 -0.771167 1.63862
14 2 2.75292 1.48065 8.17365 -0.877686 -0.843546 -0.402516
15 2 5.1831 4.69834 22.3645 0.0189781 2.03428 -1.18073
16 2 3.79347 1.53279 26.7186 0.59641 1.41299 2.02629
17 2 7.34925 6.23221 6.36975 -0.146758 1.30266 -0.766789
18 2 7.94915 4.01187 8.50736 2.39529 1.53554 -0.682411
19 2 8.07923 5.11813 26.5233 0.349574 0.676723 -0.653112
20 2 6.52167 1.08892 12.4031 -0.763393 -0.949769 0.680466
21 2 2.5467 2.49255 0.582369 1.05817 -0.946703 -1.31218
22 2 3.92223 4.62284 12.6974 0.386755 -0.534073 -1.20654
23 3 5.92418 3.02467 16.1036 -0.663816 0.0630092 -0.977633
24 3 7.57247 1.86556 11.5127 0.537232 0.330523 -1.57426
25 3 9.5718 7.5924 28.2 -1.49511 -0.375624 0.0125766
26 3 7.36038 1.16625 21.0575 -0.601055 1.73792 0.927563
27 3 4.22446 6.63506 8.98378 1.6197 0.876225 -0.845391
28 3 1.26296 2.76685 23.2695 0.76641 -0.339514 0.147406
29 3 7.77326 2.31325 5.26448 -0.0145554 0.10047 1.59785
30 3 1.88691 2.82449 7.67849 -0.115948 -0.647778 -0.412732
31 3 4.37286 7.06504 18.8096 0.357367 -0.374676 -1.0543
32 3 4.39747 4.79385 28.0148 -0.704937 1.49556 0.783135
33 3 5.17334 4.99634 11.6402 -0.811375 -0.233983 0.511836
34 3 4.75255 5.40189 20.8862 0.342217 0.530593 0.00639546
35 3 6.45486 7.02618 15.6333 0.167921 0.576685 -0.473077
36 3 5.0026 7.22235 25.9334 -0.0618612 -0.611537 -0.386197
37 3 5.69088 5.2106 17.4493 -0.210291 -0.261103 -0.169433
38 3 3.38447 0.868711 6.71149 -0.520433 0.219862 1.49224
39 3 2.21039 0.532613 4.07491 0.386842 0.13133 -0.0581102
40 3 3.15568 1.86616 20.9948 -0.322964 -0.788252 -0.0724009
41 3 6.73828 3.49535 9.35539 -1.44987 -0.0926015 0.972206
42 3 5.99468 5.89567 23.1567 0.165724 -1.41819 0.32118
43 3 3.91093 1.98879 9.15729 1.01479 0.110629 0.791926
44 3 3.47168 2.31891 28.2033 0.218749 -0.547442 -1.34879
45 3 6.08404 3.45082 21.7709 0.282747 -0.798298 -0.0715033
46 3 4.97507 1.55529 2.59805 -0.0445648 0.0817456 -0.283411
47 3 7.34734 5.80748 4.84136 -0.199066 0.428347 -0.838144
48 3 6.99869 3.76372 19.0875 2.22048 -1.92721 0.657244
49 3 7.40587 4.91122 7.25733 -0.599639 -0.598373 0.29259
50 3 7.12775 4.58155 14.2095 -0.0417094 -0.121471 0.23772
51 3 7.69871 6.69953 11.6493 1.12661 -0.0969566 -0.166586
52 3 4.64132 2.47167 25.701 0.290894 0.00496271 0.0684253
53 3 7.0615 4.20705 25.6929 -0.70432 0.361609 -0.444601
54 3 5.17966 1.22486 18.8307 -0.0653505 0.135496 0.808229
55 3 7.37967 6.46115 27.3564 -0.823321 -0.644059 -1.43716
56 3 5.99627 1.15865 6.84003 0.698753 0.452352 -0.343552
57 3 2.1657 4.93936 9.27558 -0.784976 -0.465889 0.677402
58 3 6.30512 3.72924 2.34112 -0.0231466 0.479158 -0.165845
59 3 6.09935 2.14594 13.5533 -0.326781 1.50595 1.29927
60 3 6.02472 1.26217 23.3625 -0.881848 -0.293035 0.302776
61 3 2.13336 2.98472 16.2173 0.1158 -0.160672 0.321086
62 3 1.75264 4.26866 27.7706 -0.00955986 -0.17746 0.846105
63 3 8.75471 4.94926 20.9609 0.00616805 0.913785 -0.914084
64 3 2.92715 3.47428 12.1074 0.408425 0.457988 -0.058028
65 3 2.8983 6.01564 15.9393 0.573038 -0.275802 -0.369281
66 3 2.43843 5.61849 25.5341 -0.541906 0.062507 0.463587
67 3 3.41772 4.44655 4.64308 0.246715 1.35674 -1.64618
68 3 3.04691 5.95805 13.0843 -0.470276 0.435729 0.188323
69 3 2.34023 2.54969 2.13177 0.0167228 0.449157 1.90466
70 3 3.97168 4.2062 23.2985 -0.335096 -0.160488 -0.0311374
71 3 4.91436 3.88077 6.86342 -1.93858 -1.83138 0.519965
72 3 4.51757 4.18614 14.1915 -2.14614 1.06049 -0.856606
73 4 4.95951 1.0136 3.4087 0.0430726 -0.386196 0.543018
74 4 6.39061 3.44136 19.7554 -0.649478 -0.0114878 0.934925
75 4 4.01681 5.25574 4.34684 -1.16985 -0.734714 0.0681164
76 4 3.02555 5.13906 16.3531 -0.166175 -0.0559401 0.0978047
77 4 8.66118 7.10544 28.0575 1.22253 0.442341 0.000585718
78 4 6.16627 0.767065 0.791267 0.431918 0.104252 -0.00858149
79 4 5.14816 2.90595 6.8126 -0.342261 0.444662 0.0176281
80 4 1.68802 1.23971 4.68358 0.330365 -0.55729 0.128372
81 4 5.0057 5.60916 18.0543 -0.125003 0.224888 -0.201244
82 4 5.76217 4.26941 6.75831 2.09032 1.1872 -0.253566
83 4 2.75926 2.36365 15.7766 0.136384 -0.32382 0.143317
84 4 2.30595 1.12841 3.23033 0.288808 -0.900149 0.640412
85 4 5.47094 4.28607 17.0431 0.224697 0.666967 -0.150944
86 4 4.31427 5.74905 28.3631 0.125595 -1.45685 -0.697874
87 4 4.52318 1.57393 16.008 0.305777 -0.236472 -0.193198
88 4 4.04432 1.87269 2.47083 -0.297468 -0.0379444 -0.0260936
89 4 3.01248 2.81009 20.8048 -0.105284 0.296076 -0.0576952
90 4 3.06858 0.172812 4.52534 -0.875234 1.21385 -1.19882
91 4 6.17153 6.42339 16.3577 -0.237031 -0.440146 0.575489
92 4 6.52811 4.37202 18.5271 -1.07685 1.75617 -1.17053
93 4 4.30482 1.00851 18.4375 0.0956947 0.091901 0.442589
94 4 6.44768 3.80605 1.37938 -0.0528255 0.0537928 -0.0545247
95 4 5.01931 1.3836 19.8133 -0.128798 -0.194585 -1.33243
96 4 7.10953 5.43853 14.7529 -0.137591 -0.71348 -0.74025
97 4 1.28951 2.54803 6.21511 -0.264473 -0.279258 -1.3881
98 4 5.71703 2.922 2.465 0.154711 -0.159854 0.0430861
99 4 6.70036 1.48862 6.12325 -0.41685 -0.131077 0.327805
100 4 8.17579 4.51755 20.2694 0.11327 0.503627 0.197075
101 4 1.72528 3.46259 15.4846 -0.47528 0.489433 -0.503199
102 4 3.35201 5.87751 15.055 -0.654124 0.423492 0.63193
103 4 9.09043 5.86313 20.6014 -0.627944 -1.78347 0.792076
104 4 3.75723 4.23607 5.51133 0.498043 -0.447004 1.2031
