88
Lattice="6.8037 0.0 0.0 -4.139012893 6.184814974 0.0 0.294028686 -0.269817895 22.405446357" Properties=species:S:1:pos:R:3:energies:R:1:forces:R:3 energy=-577.8159790039062 free_energy=-577.8159790039062 stress="-0.0007587637519463897 -0.0016662824200466275 -0.0008253530249930918 -0.0016662824200466275 -0.005211028270423412 0.0005871431203559041 -0.0008253530249930918 0.0005871431203559041 -0.003313776571303606" pbc="T T T"
Si      -5.05800072       4.41280923       9.81626048      -6.63217211       0.00095777       0.00115906       0.00130685
Si      -4.82880259       4.39048943      13.02777660      -6.61711168       0.00646465      -0.00284816       0.00003646
Si      -3.61212470       5.78320951       3.81066663      -6.84361410      -0.00072276      -0.00186490       0.00521496
Si      -3.37828787       5.79490086      19.15779556      -6.85750723      -0.00250920      -0.00016955      -0.00476461
Si      -1.66617734       4.46666422       1.86750889      -6.65816641       0.00067670       0.00095544      -0.00065456
Si      -1.46864453       4.44451189      21.05848805      -6.61037683       0.00232492       0.00134702      -0.00223940
Si      -1.17553971       2.16587168       3.73720664      -6.93346691       0.00543044      -0.00037061      -0.00047903
Si      -0.96459996       2.16068215      19.05590957      -6.87556601       0.00237903       0.00180006       0.00375994
Si      -0.22084619       5.75176521       7.90684229      -6.88190269       0.00032543       0.00058941       0.00282595
Si       0.08853452       5.76642184      15.02166357      -6.86985588       0.00423307      -0.00468192       0.00758065
Si       2.16505862       2.10806785       7.93741021      -6.89632893      -0.00056817      -0.00122297      -0.00229016
Si       2.50762718       2.13623449      14.95118776      -6.89921761      -0.00170069       0.00197313      -0.00216939
O       -5.79416270       6.25748964       6.98206380      -6.48365307      -0.00051228       0.00049442      -0.00017361
O       -5.24716748       5.10019383       0.72345758      -6.70423460       0.00006879      -0.00064843       0.00052443
O       -5.04629915       4.48611938      11.43459623      -6.54123545      -0.00122441       0.00132297      -0.00122309
O       -4.57122391       4.78712854       4.64409285      -6.52016687       0.00233802       0.00132836      -0.00104990
O       -4.30174549       4.77509518      18.31257116      -6.49247503       0.00181362      -0.00121860       0.00129804
O       -3.40186571       3.12180903      15.87262177      -6.45278311       0.00103543       0.00068033       0.00085629
O       -3.71767205       3.07397032       7.01579760      -6.47165489       0.00090302       0.00083607      -0.00038395
O       -3.77595662       5.26168102       9.24971250      -6.51482344      -0.00093001       0.00015143      -0.00142748
O       -3.51500626       5.25110237      13.52339495      -6.54245281      -0.00224887      -0.00257262       0.00047454
O       -2.73943739       0.94882531      11.44021304      -6.67422676      -0.00056947      -0.00001539       0.00069199
O       -3.09102233       5.05367592       2.39450158      -6.58778811      -0.00150351      -0.00010492       0.00012078
O       -2.87462941       5.18005730      20.64860806      -6.59640837      -0.00011514      -0.00186881       0.00183855
O       -2.47242724       1.71564947       4.58938096      -6.44101048      -0.00208473      -0.00114280       0.00077057
O       -2.25381006       1.65981064      18.23379382      -6.45584822      -0.00181689      -0.00085033      -0.00280065
O       -2.40096094       1.27225772      -0.13467063      -6.78886318      -0.00169349      -0.00114446      -0.00146571
O       -1.72106690       4.57739354       0.25379517      -6.54597282       0.00051178      -0.00079579      -0.00071892
O       -1.93112703       5.05080370      11.14814918      -6.69277430      -0.00089803      -0.00009839      -0.00124451
O       -1.47554606       2.62379158       9.51349387      -6.63232660       0.00094899      -0.00145745       0.00188498
O       -1.32278587       0.05478403      15.92425103      -6.49133778      -0.00496264       0.00141669      -0.00375083
O       -1.53225035       2.90572735       2.27750655      -6.48785782      -0.00072917      -0.00195146      -0.00023448
O       -1.43093283       2.94060686      20.46066536      -6.57059336      -0.00007364       0.00058248       0.00056224
O       -1.17163614       4.76564038       7.04386332      -6.49444485      -0.00019948      -0.00040810      -0.00158885
O       -1.14878963       2.66032536      13.47908721      -6.58897305      -0.00037158      -0.00310711       0.00058008
O       -0.90514142       4.81922237      15.87643055      -6.53325748       0.00122829       0.00139564      -0.00134992
O       -0.23021370       3.10821234       4.65983869      -6.45234728      -0.00053891       0.00187654      -0.00073883
O       -0.01334134       3.09534174      18.14416154      -6.47339153       0.00069269      -0.00146193      -0.00023451
O       -0.42326272       5.36648521       2.44754460      -6.52187252       0.00017680      -0.00151457       0.00118937
O       -0.34731655       0.84374502       3.18982786      -6.48760557      -0.00203259       0.00107593      -0.00091311
O       -0.17650067       5.29598070      20.50367661      -6.54871607      -0.00066920       0.00157088       0.00304434
O       -0.15178718       0.87355852      19.69217287      -6.50381565      -0.00185829       0.00032336       0.00159660
O        0.36057614       5.06137167       9.30141439      -6.51633310       0.00030643      -0.00002705      -0.00056468
O        0.62286963       1.41307472      11.64096923      -6.60584068      -0.00007739       0.00141862      -0.00079693
O        0.60670482       4.99189675      13.65351668      -6.49328613      -0.00207660       0.00279192       0.00273469
O        0.84115522       1.65315306       7.13912011      -6.45060968       0.00099217      -0.00097391       0.00202323
O        0.61212342       1.51076203       0.12063806      -6.72320509      -0.00244331       0.00324494       0.00034442
O        1.20045807       1.64383955      15.75707566      -6.44983625      -0.00207628      -0.00097655       0.00224918
O        1.77514447       0.07516270       4.71524804      -6.47838879       0.00043192      -0.00064076      -0.00003702
O        1.75238124       2.83349658       9.40166867      -6.57193518      -0.00098468       0.00013654      -0.00070562
O        2.12066377       2.82919944      13.47085557      -6.55816269       0.00124008       0.00043296       0.00045426
O        2.02144514       0.07264414      18.25871586      -6.45851183       0.00305256       0.00108218      -0.00172980
O        2.22171089       2.33832536       2.22440759      -6.60333061      -0.00003091       0.00053612      -0.00072042
O        2.24130482       2.67703432      20.56349031      -6.55761337       0.00366677       0.00385088      -0.00414283
O        3.01274009       0.81001832       8.49240836      -6.48328972       0.00099393      -0.00028045       0.00092457
O        3.39155441       0.85380080      14.38988522      -6.50869322       0.00097951       0.00246262      -0.00200686
H       -4.40285336       5.32643806       1.18477090      -6.51550913      -0.00011872      -0.00052649       0.00049329
H       -4.41372847       3.58395385      20.89120233      -6.57936716       0.00038777       0.00055042       0.00045213
H       -4.53553259       3.25839126       1.90690580      -6.51069164      -0.00006395       0.00030564       0.00013873
H       -3.02159023       5.30984189       9.91940384      -6.57405567       0.00121766       0.00012134       0.00128150
H       -2.83668879       5.31150811      12.80394310      -6.55824375       0.00046212      -0.00037121      -0.00056474
H       -2.03381244       2.01203077      10.05874364      -6.58593178       0.00059287      -0.00001240       0.00024395
H       -2.91521933       1.55923560       0.65173902      -6.54984331       0.00011777      -0.00007707       0.00055001
H       -1.99157874       1.79153067      21.67787526      -6.50610781       0.00000145       0.00038124       0.00018062
H       -1.39454384      -0.26296811       0.26402581      -6.48502493      -0.00021069       0.00158269      -0.00144249
H       -0.63210056       2.16789180      12.79475623      -6.54536581      -0.00066578       0.00045886       0.00030199
H       -1.52273090       4.27531983      10.69393111      -6.56750345       0.00019246       0.00053765      -0.00002592
H       -0.55753390       2.35646816       9.70774716      -6.48810768      -0.00139600       0.00066952       0.00015654
H       -0.91162920       3.59414372      13.31009282      -6.53537178       0.00027422       0.00199326      -0.00015841
H       -0.03706924       1.42538848      22.71585847      -6.53198433       0.00139695      -0.00015132      -0.00026905
H        0.05728623       6.06714786      21.09472576      -6.50988483      -0.00040881      -0.00270623      -0.00165788
H        0.41258657       5.25818477       1.88868704      -6.53029680       0.00011554      -0.00026446      -0.00085954
H        1.25153025       1.72057080      12.33604273      -6.50535583      -0.00058496      -0.00013824       0.00003783
H        1.05365582       1.73422027      10.81648153      -6.49137115      -0.00015868       0.00003129       0.00092681
H        0.90444548       0.45016578      21.93995079      -6.49494171      -0.00025452      -0.00132361      -0.00117929
H        1.66495082       2.24943408      21.24358768      -6.58887434      -0.00367268      -0.00241944       0.00476032
H        1.54659191       1.91447453       1.64025335      -6.57589102      -0.00057298       0.00050106      -0.00001669
H        2.87443285      -0.39698047      11.11700944      -6.60396385      -0.00042364      -0.00129609      -0.00037068
H        3.93020253       1.31555696      12.34264892      -6.56962490       0.00010671       0.00006361      -0.00063360
H        4.81032108       0.32757536      11.55190714      -6.47609329       0.00094265      -0.00050020      -0.00013770
Ca      -3.48706201       5.46959032       6.83097671      -6.46497822      -0.00203703       0.00215181      -0.00297083
Ca      -3.19630419       5.47432008      16.09824514      -6.42928219      -0.00036211      -0.00125791       0.00018605
Ca      -1.37131617       2.45078110       6.82741825      -6.43155813       0.00154768      -0.00107640      -0.00231422
Ca      -1.04701833       2.44609717      15.98287779      -6.45182610      -0.00063046       0.00140482       0.00040172
Ca      -0.06901851       5.49124890       4.89905019      -6.47428322      -0.00032426       0.00010706       0.00058326
Ca       0.18963952       5.47150241      18.03378286      -6.45620203      -0.00049435      -0.00343469      -0.00085685
Ca       2.08971189       2.44672664       4.81236896      -6.44132042      -0.00059213       0.00050975       0.00235336
Ca       2.33265261       2.45091249      18.08013867      -6.45994616      -0.00033451       0.00176788      -0.00187856
