88
Lattice="6.8037 0.0 0.0 -4.139012893 6.184814974 0.0 0.294028686 -0.269817895 22.405446357" Properties=species:S:1:pos:R:3:forces:R:3 energy=-570.90355005 pbc="T T T"
Si      -4.97451000       4.18509000       9.91227000      -0.87011900       0.61920400      -3.87925400
Si      -4.79474000       4.65292000      13.00380000       1.10076600      -0.99179700       2.12276600
Si      -3.54748000       5.54997000       3.82941000      -0.86396100      -0.92239500       1.51287000
Si      -3.32219000       5.81001000      19.06970000      -0.88072700      -1.33722400      -2.47206000
Si      -1.49990000       4.25072000       1.80242000      -1.36628600       2.02166700       0.65477500
Si      -1.30833000       4.43369000      21.03550000      -1.56507000      -1.15361300      -3.29461100
Si      -1.19225000       1.98770000       3.88464000       0.19863800      -2.14570300       1.23972600
Si      -1.14335000       2.16007000      18.91290000       1.79315000       2.13513300      -1.65093100
Si      -0.29748200       5.39399000       7.88963000       0.78556100      -0.84328600      -1.51977100
Si      -0.01796440       5.86046000      15.01740000      -0.26771800      -0.63626800       2.21600400
Si       2.01550000       1.81453000       7.90165000       2.43513000       1.87765100      -2.66077400
Si       2.25484000       2.26954000      15.05340000      -0.91027300       0.51639000       1.29134600
O       -5.90136000       5.98564000       6.95089000       0.06439000      -0.46628600       1.01159400
O       -5.09539000       5.21041000       0.37936600      -0.01247000       1.39442700       0.69665100
O       -5.00223000       4.15506000      11.49540000       0.09973900       0.85066300      -0.17791100
O       -4.55744000       4.64821000       4.72254000      -0.44438200      -0.80839500      -1.01527300
O       -4.36984000       4.86719000      18.24120000       0.38327800      -0.54622900       1.01845500
O       -3.84064000       3.28487000      16.04800000       0.92562300       0.85395900       0.13228700
O       -3.79991000       2.82784000       7.02639000      -0.35670000      -0.89862800       0.19400400
O       -3.74530000       5.17607000       9.32247000      -1.55395100      -0.88672900       0.71563000
O       -3.27007000       5.38973000      13.36440000      -2.88399600      -0.56864600      -0.17462700
O       -3.04876000       1.32044000      11.79960000       0.63230700      -1.53351000       1.12934200
O       -2.85841000       4.98453000       2.42790000       0.48860400      -0.83518200      -1.02329300
O       -2.69654000       5.15119000      20.44630000       0.28889100      -0.16325000       1.46109800
O       -2.48855000       1.43890000       4.72241000       0.46480400       0.25878000      -1.57813200
O       -2.44648000       1.73695000      18.10560000      -0.27151200      -0.31050700       0.71311700
O       -2.31645000       1.48204000       0.06033130       0.05924300      -1.03980800       0.92839900
O       -1.85386000       4.43895000       0.16769000       0.72893400      -0.60580500       2.68362100
O       -1.67288000       5.29310000      11.13390000      -0.69124200       0.78263100       0.80771900
O       -1.54621000       2.03216000       9.41719000       0.70102600      -0.26301400       1.93800600
O       -1.47083000       0.03358430      16.03630000       0.22096300      -0.05702300      -1.01584500
O       -1.45198000       2.78758000       2.47280000      -0.82244400      -0.24897600      -2.21304500
O       -1.30625000       2.89644000      20.36840000      -0.34620200       1.37174800       1.67548500
O       -1.22052000       4.40202000       7.01202000       0.51694000      -0.38172000       0.66420500
O       -1.04997000       2.82441000      13.48000000      -0.01613000       1.12022000       0.87621600
O       -0.95235300       4.68867000      15.66270000       0.15955000       1.72203100      -1.20365600
O       -0.36910400       2.93544000       4.85494000       0.69801900       0.69709000      -0.37128000
O       -0.21669900       3.17517000      17.98360000      -0.72836800       0.15335900       0.46132500
O       -0.15633300       5.04635000       2.23915000      -0.63425200       0.16942800       0.24941600
O       -0.12333700       0.73071300       3.40180000      -2.10708800       2.42789600      -1.13992800
O       -0.07369810       5.42136000      20.59440000      -0.12023400      -0.47300200       0.59734000
O       -0.04896590       0.99671200      19.19130000       0.09675500      -0.27945100       1.84506900
O        0.36975000       4.80810000       9.33314000       0.55997600      -0.31459800       0.66217600
O        0.39742100       1.75667000      11.41270000       0.88074100      -0.36977900      -0.84837600
O        0.64845500       5.45477000      13.54160000       1.28336800      -0.37951300      -1.56633600
O        0.69835000       1.62276000       7.01156000       0.47584400      -1.14630600       1.01683000
O        0.82214500       1.52368000       0.01525120       3.63618800       0.86649600       0.24077800
O        0.94970400       1.66569000      15.82690000       0.53645100       0.05326700      -1.35225300
O        1.69983000      -0.20752600       4.85821000       2.60821800       0.65150900       0.94120400
O        1.96504000       2.65985000       9.29977000      -0.77706300       0.43840300       2.55898300
O        2.01015000       3.09688000      13.61790000      -0.22187600       0.25845300      -0.26669600
O        2.03316000      -0.03698630      18.09560000       1.09501800       0.49992600      -0.29505300
O        2.17833000       2.61735000       2.29215000       2.15118900       1.29923000       0.70855800
O        2.19812000       3.06941000      20.64180000      -0.06066000       0.12605100       0.80112500
O        2.71652000       0.33784600       8.16949000      -1.01968400       1.88083900       1.65978300
O        3.42295000       1.14696000      14.77000000      -0.25478100      -0.86778200      -1.24437000
H       -4.25778000       5.12765000       0.90330600      -0.27166000       0.03265500      -0.04490600
H       -4.00267000       3.83794000      20.83560000      -0.65220000      -0.47481600      -0.29342000
H       -3.71763000       3.05727000       2.09844000      -2.11423100      -0.94693200       0.56136900
H       -3.14901000       5.39999000      10.06370000       1.12969300       0.10222700       0.17771100
H       -2.65530000       5.22839000      12.61170000       0.50169300      -0.15459300      -0.29122700
H       -2.32323000       1.58757000       9.84334000       0.48188400       0.44786000      -0.29094400
H       -2.10132000       2.05733000       0.81707400      -0.03917100      -0.40346200       0.62963400
H       -2.01603000       1.82395000      21.72960000       0.12591000       0.74562800      -1.47541300
H       -1.21284000       0.01100730       0.46532000       0.21926100      -1.36527100      -0.22448900
H       -1.02977000       2.25169000      12.71330000       0.10101400      -0.24051400      -0.77943500
H       -0.97848400       4.91073000      10.55550000       0.21066800      -0.06592000      -0.20304100
H       -0.88365500       2.07925000      10.22290000      -1.27045500      -0.04401400      -1.69528000
H       -0.59764500       3.67894000      13.25730000      -0.53344600      -0.85300900       0.11304700
H        0.23938600       1.00654000      22.43880000      -3.78867500      -0.57060000       0.07490600
H        0.34015300       5.77457000      21.40850000       0.36427400       0.38105500      -0.28395900
H        0.58173400       4.93093000       1.59942000       0.83285900       0.07612800      -0.24411200
H        0.95592100       2.37334000      11.94090000      -0.40524100      -0.24268000       0.25218700
H        0.98724200       1.65388000      10.60120000      -0.62796700       0.09068000       0.59658300
H        1.54961000       0.43415500      22.12650000       0.21275600       0.13598400      -0.28923700
H        1.64180000       2.95153000      21.46420000       0.73184600      -0.18788000      -1.08721300
H        1.88751000       2.21058000       1.47507000      -0.52529100      -0.63535200      -0.90086600
H        2.81275000       0.03178850      11.40710000       0.05461100      -0.75944700      -0.69059100
H        3.07806000       1.83611000      12.28350000       0.30078000       0.20700400       0.36681500
H        4.17350000       0.67144400      12.50450000      -0.86042000       1.44110500      -1.20025300
Ca      -3.49913000       5.31871000       6.95851000       0.15227200      -0.82789700      -1.06319200
Ca      -3.37503000       5.58132000      15.94720000       0.45927500      -0.60475000       1.21475500
Ca      -1.40848000       2.10279000       6.90237000      -1.33906000       0.92006700      -0.04314200
Ca      -1.36882000       2.49069000      15.92830000       0.17149800       0.03300200       0.32719000
Ca      -0.07172580       5.30072000       4.92373000      -0.09691000      -0.30490700       0.16999800
Ca       0.27095500       5.54647000      18.00650000      -0.70556200      -0.62057200       0.05222300
Ca       1.85232000       2.17951000       4.85379000       0.74699200       0.51864500       0.19321800
Ca       1.99212000       2.39821000      18.11880000       0.41088800       0.59855000      -0.09134100