ITEM: TIMESTEP
5222
ITEM: NUMBER OF ATOMS
104
ITEM: BOX BOUNDS xy xz yz pp pp pp
0.0000000000000000e+00 1.0124796696170293e+01 2.6303552510961419e+00
0.0000000000000000e+00 7.7458211072710021e+00 5.4033995252876998e-01
0.0000000000000000e+00 2.8422935658694676e+01 1.3928068087879120e+00
ITEM: ATOMS id type x y z fx fy fz
1 1 7.32506 6.18113 13.8989 -0.11723 0.482872 -0.0780402
2 1 7.1592 6.55315 22.0948 0.531254 0.0391335 -0.260724
3 1 3.54388 5.94786 7.82537 -0.592069 0.174635 -0.0619753
4 1 2.52327 3.17395 22.0299 -0.127954 0.219585 0.319543
5 1 3.76259 6.09524 19.9987 -0.328087 0.659937 0.350319
6 1 5.48615 2.61613 7.97452 0.402091 -0.0404392 0.0177472
7 1 6.49024 3.92922 28.2639 -0.396471 0.214298 0.268667
8 1 6.8174 5.78755 5.83746 0.397588 0.323544 0.397263
9 1 6.05572 3.18557 20.2394 -0.0856768 -0.0919257 -0.103074
10 1 2.36901 2.79618 5.92202 -0.539892 -0.124659 0.369696
11 2 3.7761 1.7419 11.0636 -0.907112 -0.505587 -1.37413
12 2 6.99108 6.62016 18.9824 -0.33966 -1.82891 0.467184
13 2 8.8765 5.16585 16.9349 -0.156265 1.08322 1.43
14 2 3.26971 6.34197 4.69124 0.944611 -1.46163 0.605946
15 2 2.62782 2.89908 18.9776 1.44451 -0.989809 -0.573168
16 2 4.01563 6.15839 23.2786 0.719858 0.565133 -0.0696641
17 2 5.0838 4.73194 2.61235 0.924827 0.557868 0.797758
18 2 5.82369 2.59487 4.86015 -1.02296 -1.92343 -0.0660771
19 2 5.90068 3.66013 23.2577 -1.48854 -0.917018 -1.43206
20 2 7.08997 5.66872 9.00778 -0.75862 -0.295737 -0.923158
21 2 7.72483 2.09752 25.3102 -0.590088 -0.463907 -2.95906
22 2 1.82186 3.01306 9.09112 -2.21455 0.566234 -0.446223
23 3 3.7659 1.554 12.6103 0.198916 -0.0269465 1.29516
24 3 8.13658 6.45753 8.06494 -0.0847875 0.208279 -0.332312
25 3 7.45754 6.70886 24.4965 0.0807633 -0.928578 0.354107
26 3 7.47605 5.6695 17.669 0.205112 0.384638 -0.114465
27 3 2.36831 5.22048 5.5287 0.0605407 0.763321 -0.620447
28 3 8.23954 7.09755 19.9365 -0.561298 0.0311928 -0.295206
29 3 5.73498 0.781905 1.48558 0.743118 -0.245717 0.45041
30 3 6.63542 1.25202 4.13246 0.133599 0.269947 0.320537
31 3 8.73286 5.2161 15.3735 -0.0519605 -0.178491 -1.03224
32 3 2.19018 2.84013 24.7804 1.3392 -1.07595 0.613193
33 3 2.97278 3.49362 8.09683 1.50613 0.578696 -0.479528
34 3 2.32279 3.72994 17.5488 0.0440118 -1.10323 0.821681
35 3 3.84354 5.72702 10.7331 0.803942 -1.51141 -0.962269
36 3 2.81777 5.64317 22.3676 -0.705123 -1.01619 -0.80109
37 3 3.57073 3.83895 14.2612 0.872955 -1.36427 -1.38928
38 3 3.84618 5.64538 3.23263 -0.363714 0.767586 0.58248
39 3 3.2612 6.53874 28.3477 -0.00362052 0.624598 0.236646
40 3 3.13273 6.25205 17.5147 -0.407218 -0.196245 -0.575745
41 3 4.57514 1.94058 5.77475 0.693085 0.580889 -0.42676
42 3 3.66745 3.78012 19.8799 -0.434879 -0.048364 -0.0672153
43 3 1.923 0.321583 5.76552 -1.14928 0.487706 -1.52548
44 3 3.42493 6.92756 24.5927 -0.486585 0.675068 1.74289
45 3 3.51387 1.51759 18.2783 -0.567029 1.12179 0.495774
46 3 4.05466 3.19344 27.9187 0.342462 -0.269033 -0.530666
47 3 4.93237 4.3364 1.08866 0.139927 0.0226764 0.172507
48 3 4.58248 1.7177 15.5936 -0.570146 0.0470334 1.50188
49 3 5.10504 3.4119 3.60108 0.40739 -0.684022 0.675092
50 3 5.01611 2.6995 10.486 0.242542 0.45022 -0.0747623
51 3 5.73918 5.19221 8.1095 1.0898 -0.0349808 0.620286
52 3 4.94644 7.20489 22.4733 0.707777 -0.106453 -0.563755
53 3 4.84466 2.65481 22.3797 0.925549 0.984507 0.748796
54 3 5.44149 5.42049 14.9275 -0.450803 -0.0764302 -0.266522
55 3 4.98305 4.93609 23.9613 0.376071 -0.309671 -0.549251
56 3 6.56761 5.496 3.0615 -0.940168 0.318263 -0.312763
57 3 6.86674 3.36296 5.80101 -0.0248105 0.795707 -0.261371
58 3 5.39749 5.40252 26.7279 -1.21258 -0.275723 -1.98557
59 3 6.57444 6.65239 10.2253 -0.300568 0.385951 0.60899
60 3 5.98436 5.55191 19.7944 0.650863 1.59389 -0.123541
61 3 9.48049 6.77671 13.0046 0.23452 0.163231 0.739037
62 3 6.48111 2.91206 24.5748 0.822302 0.0601497 0.616514
63 3 6.24288 3.15681 17.8361 0.714009 0.714145 -0.0168287
64 3 0.795336 2.05281 8.27146 0.219437 -0.449397 0.224195
65 3 6.95814 3.94956 12.2211 0.802746 -1.44669 -0.782526
66 3 7.05196 4.14387 22.1772 -0.324164 0.0374473 1.02971
67 3 8.15072 3.20113 0.715882 -0.537371 0.00461121 -1.86765
68 3 7.82454 4.33311 9.69625 0.210935 -0.374607 -0.185081
69 3 7.47168 2.11083 26.8438 -0.203994 0.666912 1.80307
70 3 1.48683 2.31701 19.9791 -0.21318 0.21936 -0.800556
71 3 2.02795 3.30508 3.4605 1.62066 -2.03814 -0.714389
72 3 2.30757 2.38235 10.5032 1.5528 -0.812306 0.990903
73 4 3.84043 3.41594 26.9944 0.155607 -0.0628145 -0.174242
74 4 4.09754 1.67504 16.4911 0.475087 -0.46081 -0.974473
75 4 1.70483 4.03061 0.392262 0.0675206 -0.182867 -0.0669365
76 4 7.25129 3.04969 12.5349 -0.283597 0.744426 0.350793
77 4 6.79147 6.19622 25.0352 1.04575 0.306324 -0.44787
78 4 8.36607 6.27564 24.5437 -0.962854 0.516473 0.43497
79 4 1.59682 4.08569 3.77281 -0.570902 1.77264 0.374127
80 4 8.74356 6.28353 1.04908 -0.0883886 0.931049 0.78957
81 4 2.71649 4.27223 14.5884 -0.342589 -0.164239 0.0332126
82 4 3.0038 3.5139 3.36585 -0.968986 0.0694202 0.0350016
83 4 2.85899 6.28056 12.2367 0.426943 -0.223877 -0.812384
84 4 3.25135 7.40964 27.6616 0.0202536 -0.702753 0.549024
85 4 3.57125 3.0684 13.56 -0.515083 0.976631 0.832414
86 4 2.96871 2.21797 25.0004 -1.16423 1.19191 -0.62139
87 4 4.38479 4.8884 10.5195 -1.10991 0.922675 0.64538
88 4 2.65621 1.9659 -0.0831198 -0.400269 0.218783 0.672072
89 4 2.87556 7.13187 17.1548 0.359526 -0.0111048 0.391288
90 4 3.53128 5.14269 0.540154 -0.180119 -0.399116 -0.720683
91 4 4.49904 6.39818 10.4651 0.132991 0.467138 0.31361
92 4 4.31078 2.62227 15.2902 -0.115125 0.00218923 -0.446302
93 4 4.72718 4.83052 14.4937 0.200466 -0.209661 0.198873
94 4 4.51707 5.62547 27.1665 0.768526 0.226892 0.0118691
95 4 4.96271 5.79854 15.6791 0.0949403 0.25561 0.456974
96 4 5.67243 2.97753 11.1805 -0.268258 0.0980091 -0.217242
97 4 6.18476 0.964795 2.39421 -0.476402 -0.651738 -1.22691
98 4 5.1116 5.24147 25.7387 0.594075 0.0170307 1.4988
99 4 6.72663 6.28383 2.47356 0.418821 -0.523326 0.353761
100 4 5.49643 2.74568 17.387 -0.344017 0.0847924 -0.552501
101 4 3.19076 6.55504 13.6984 -0.351018 0.144442 -0.251772
102 4 7.40172 3.90656 11.2889 -0.362481 0.996361 0.723151
103 4 6.45893 4.05606 17.4366 -0.420117 -0.858619 0.42322
104 4 8.40641 3.10304 1.62573 0.31639 -0.120243 1.76124
