ITEM: TIMESTEP
532
ITEM: NUMBER OF ATOMS
104
ITEM: BOX BOUNDS xy xz yz pp pp pp
0.0000000000000000e+00 1.0124796696170293e+01 2.6303552510961419e+00
0.0000000000000000e+00 7.7458211072710021e+00 5.4033995252876998e-01
0.0000000000000000e+00 2.8422935658694676e+01 1.3928068087879120e+00
ITEM: ATOMS id type x y z fx fy fz
29 3 5.81984 0.593598 1.42854 -1.12441e-07 1.52985e-08 -2.86363e-07
47 3 4.77758 3.93875 1.29787 1.55423e-07 2.57754e-07 -5.63384e-07
97 4 6.00314 0.656835 2.40074 2.06793e-07 -8.41434e-08 -5.51415e-08
67 3 7.95652 3.28501 0.885056 -1.33524e-07 -9.80661e-08 -2.20476e-07
75 4 1.7148 3.8338 0.472187 4.75677e-09 2.07885e-08 -2.19383e-07
104 4 1.32826 3.00512 1.77325 -2.2763e-07 2.71317e-08 -2.33541e-07
17 2 4.71936 4.14124 2.8904 7.54603e-08 -3.92031e-07 7.58524e-07
90 4 3.71284 4.81242 0.42566 2.45573e-07 1.13234e-07 3.33678e-07
99 4 6.66566 5.31692 2.86044 8.78176e-08 -4.75872e-08 2.16697e-07
80 4 8.96515 6.17122 1.08895 -1.21106e-07 -1.97973e-07 2.30658e-07
10 1 1.6799 2.0778 6.15979 2.81623e-07 -4.97695e-09 9.95694e-08
71 3 1.78794 2.51232 3.63649 3.8497e-07 1.19113e-07 1.36466e-07
79 4 1.69428 3.40529 4.08289 1.89553e-07 6.31555e-08 -2.52413e-07
82 4 2.77119 2.41518 3.55367 -3.09187e-07 1.11572e-07 1.82594e-07
18 2 5.25672 1.83703 4.95629 2.72152e-07 1.02003e-06 -5.42296e-08
30 3 6.12516 0.562624 4.26295 -1.4389e-07 -7.60867e-08 -2.2739e-07
41 3 4.01976 1.26852 5.85302 -3.0773e-07 -3.38244e-07 -6.13465e-08
49 3 4.62351 2.66963 3.64804 1.68208e-07 -2.50676e-07 1.93471e-07
57 3 6.22081 2.76941 5.86981 8.78402e-08 -3.41159e-07 1.19982e-08
14 2 2.75203 5.62738 4.80653 -2.4189e-07 -7.6685e-07 5.23231e-07
38 3 3.42102 5.0392 3.38821 -3.94006e-07 3.30624e-07 -4.73332e-08
8 1 6.42591 5.21519 6.08072 1.63302e-07 6.59018e-09 3.06304e-07
43 3 3.89806 6.09473 5.86253 1.39845e-07 5.70568e-08 -6.77714e-08
56 3 6.06769 4.93107 3.5268 2.96372e-08 1.39162e-08 -2.42321e-07
27 3 8.71853 4.51318 5.48019 3.74882e-07 1.51882e-07 -3.00007e-07
22 2 1.48475 2.46699 9.14952 2.85529e-07 -3.21346e-08 -2.72074e-07
33 3 2.69811 3.00386 8.20211 -1.3572e-08 2.45654e-07 -1.37622e-07
6 1 5.13221 2.12468 7.97361 1.57881e-07 -5.48806e-08 -3.67905e-08
64 3 7.50617 1.45881 8.28132 6.95778e-08 2.92204e-07 -2.80069e-07
3 1 3.05568 5.36732 8.01428 3.15531e-07 -1.25419e-07 2.46268e-07
20 2 6.72473 5.04933 9.14793 4.87094e-08 1.4569e-08 -6.05175e-10
51 3 5.4155 4.58352 8.28883 -4.43555e-07 -7.45045e-08 -1.56363e-07
24 3 7.68456 5.92752 8.1762 3.82514e-07 1.74162e-07 -1.62609e-07
72 3 2.06981 1.64991 10.51 2.34496e-07 1.34982e-07 2.23103e-07
11 2 3.5155 1.10129 11.1012 -2.15999e-07 -6.20891e-07 -3.68159e-07
50 3 4.74434 1.99965 10.3821 6.1805e-07 2.92776e-07 -7.47462e-08
96 4 5.49125 2.16104 10.9957 -2.57344e-07 -6.37347e-08 1.34732e-07
68 3 7.51001 3.70329 9.77977 2.2583e-07 1.47003e-07 5.37335e-08
83 4 7.48338 1.59122 12.7107 -1.57229e-06 7.51849e-07 4.75631e-07
35 3 3.02366 5.64388 10.5086 2.82206e-07 -1.27614e-06 1.14678e-06
87 4 3.28234 4.97484 11.1738 -5.93867e-07 8.58603e-07 -9.57579e-07
59 3 6.32635 5.88501 10.5759 -1.66221e-07 2.59023e-07 1.50419e-07
91 4 3.65464 6.39353 10.603 4.56736e-07 6.46797e-07 -4.38638e-07
65 3 7.33956 4.75763 12.9568 1.31936e-07 -5.44902e-07 6.93643e-07
76 4 8.26628 4.41611 12.7973 2.4452e-08 -2.66721e-07 9.84837e-08
102 4 6.99567 5.04642 12.0672 1.549e-07 4.59749e-07 -8.30509e-07
85 4 3.19929 2.96521 13.0595 -1.18434e-07 2.35401e-07 4.36927e-07
23 3 3.5777 1.25632 12.7012 4.35273e-08 4.59789e-07 3.032e-07
48 3 4.87338 2.67153 15.7605 -2.20488e-07 2.63163e-07 -1.75211e-07
61 3 6.62628 1.92416 13.0368 1.24822e-06 -9.81473e-07 -9.13083e-07
101 4 6.75927 2.90071 13.1282 -1.32297e-07 7.3863e-07 2.96618e-08
37 3 2.96458 3.94313 13.0561 1.83833e-07 -2.53818e-07 -4.76233e-07
81 4 2.93526 4.30273 13.9734 -3.14884e-08 1.59257e-07 5.55258e-07
54 3 5.40365 5.81767 15.4981 -2.25515e-07 1.76423e-07 -3.15608e-07
93 4 4.48628 5.95405 15.1522 -4.83723e-08 1.80556e-07 -1.11694e-07
1 1 7.53549 6.82599 14.3989 -2.83384e-08 -3.33915e-07 -1.0744e-07
31 3 2.4919 5.70235 15.374 -5.51351e-09 5.62799e-07 3.06313e-07
15 2 3.03452 3.38191 19.0053 -1.22378e-08 -4.75186e-07 3.81012e-07
89 4 0.705357 1.30136 17.6416 2.00205e-07 -1.36256e-07 3.91748e-07
45 3 3.85276 2.10744 18.2652 4.19758e-07 -6.73607e-07 -3.97653e-07
74 4 4.37004 2.58213 16.6186 9.83387e-08 -1.91854e-07 3.57338e-07
92 4 4.82408 3.61777 15.504 2.2535e-07 1.23285e-07 -4.51355e-08
63 3 6.96825 3.01603 17.6279 -4.21067e-07 -8.05407e-08 1.88819e-07
103 4 7.78353 3.53659 17.4139 1.91603e-07 2.74448e-07 1.64979e-07
34 3 2.454 4.26411 17.6772 2.9508e-08 2.02944e-08 4.3373e-07
40 3 3.60228 6.6918 17.6904 -8.95125e-07 -6.69045e-08 -7.75747e-07
95 4 5.28919 6.05873 16.444 2.70724e-07 -9.45037e-08 5.85851e-07
100 4 6.35875 3.01134 16.8507 2.16506e-07 1.42475e-08 -5.43953e-08
13 2 2.37494 5.76012 16.9745 1.06409e-07 -4.10339e-07 2.3912e-08
26 3 7.88958 6.48399 17.3609 5.16682e-07 -1.22259e-07 2.72288e-07
4 1 2.7269 3.49307 22.0683 -3.00775e-07 -9.01169e-08 -4.5183e-08
52 3 5.16432 7.39834 22.2556 -1.83836e-07 6.32676e-08 5.07834e-09
70 3 1.78903 2.82928 19.8969 -4.46012e-07 9.91422e-08 -4.55705e-07
9 1 6.38118 3.60368 20.0371 -4.15686e-07 -2.01033e-08 5.04325e-08
28 3 5.93778 1.23507 19.8263 -4.58114e-07 -3.21743e-07 -3.76577e-07
5 1 4.09061 6.68636 20.1526 4.04362e-07 -2.88264e-07 5.75667e-08
42 3 4.04094 4.26101 19.9149 -4.05029e-07 3.80426e-07 -3.34615e-07
60 3 6.40848 6.09286 19.652 -8.16525e-09 -1.21699e-07 7.74876e-08
12 2 7.35798 7.11792 18.8311 -2.10984e-07 5.24794e-07 6.71414e-08
66 3 7.14966 4.41235 22.1576 -3.93505e-07 -1.33084e-07 -3.4641e-07
32 3 2.37855 3.20263 24.6173 -7.18707e-07 -2.79492e-07 2.08259e-07
44 3 3.60976 7.2854 24.5455 9.16768e-08 4.35606e-07 -2.29834e-07
53 3 5.01806 2.82165 22.536 2.75074e-07 2.27508e-07 -1.2639e-07
62 3 6.68691 3.30437 24.6008 2.66273e-07 -1.93579e-07 1.27025e-07
78 4 5.00817 1.71556 23.9175 -5.22154e-08 4.21161e-07 -2.63336e-07
36 3 2.95688 5.92111 22.2995 1.64339e-07 1.33115e-07 -2.18027e-07
16 2 4.20955 6.47442 23.1886 2.16847e-07 -8.10762e-08 3.11826e-07
19 2 6.01403 3.92444 23.2183 -5.99768e-07 1.10565e-07 3.53666e-07
55 3 5.09159 5.19357 23.8297 1.26816e-07 -3.88746e-07 -4.27554e-07
2 1 7.57586 6.72425 21.8812 3.95242e-08 -3.42886e-08 8.72105e-08
25 3 7.71081 7.18262 24.3806 7.69873e-07 -7.82277e-07 3.826e-07
21 2 0.995394 2.45523 25.2256 3.73178e-07 1.94436e-07 -4.67341e-08
86 4 3.06813 3.39369 25.2812 -1.9943e-07 1.88824e-07 1.39655e-07
46 3 4.61705 2.57507 26.9468 3.82914e-07 7.79242e-08 -1.84138e-07
73 4 4.94513 1.97473 26.2376 1.19092e-07 1.8512e-07 1.04244e-07
88 4 3.90226 2.07376 27.3813 -2.8649e-08 -1.84538e-07 -9.08269e-09
69 3 7.83615 2.41344 26.8274 -1.83022e-07 -1.6396e-07 1.24536e-07
7 1 6.46049 3.83183 28.2548 1.71032e-08 -1.18828e-07 1.55584e-07
39 3 3.46359 6.47723 28.263 -7.82392e-07 -1.60873e-07 6.32689e-08
58 3 5.68463 5.51396 26.6907 -3.25756e-08 -2.52656e-08 9.33919e-08
84 4 3.59781 7.33287 27.7365 6.3811e-07 -7.95907e-08 9.15384e-08
94 4 4.80205 5.8359 26.9899 -7.62112e-08 -1.36483e-07 3.1394e-07
98 4 5.61491 5.40762 25.7105 -4.53121e-07 1.3156e-07 -4.72158e-07
77 4 8.6872 7.05527 24.4796 -5.50711e-07 1.14528e-07 -6.66902e-09
