ITEM: TIMESTEP
204
ITEM: NUMBER OF ATOMS
62
ITEM: BOX BOUNDS xy xz yz pp pp pp
-3.2772902378507196e-01 1.1114968230615037e+01 -1.7419075194931100e-01
-1.9248619501204240e+00 7.4513555613175546e+00 -1.5353827183576099e-01
0.0000000000000000e+00 9.3746985947160670e+00 -1.9248619501204240e+00
ITEM: ATOMS id type x y z fx fy fz
35 3 2.9587 0.953578 1.16586 1.72104e-07 1.01034e-07 1.51114e-07
16 4 4.28139 1.18355 2.04926 2.73531e-07 -4.67389e-07 -4.89448e-07
44 3 5.61545 0.898573 1.19426 -4.53427e-07 4.25972e-07 4.80045e-07
22 4 9.80758 0.621682 2.0477 -5.13857e-07 4.3354e-07 1.25421e-07
25 3 11.1596 0.95318 1.25695 6.93732e-07 3.95329e-07 -8.73883e-08
53 3 8.50285 0.862987 1.13819 -6.77762e-07 5.0314e-08 -3.78989e-07
2 1 1.3785 2.76301 0.951433 -1.02635e-07 -5.93832e-08 3.48015e-08
7 1 7.01047 2.79387 1.12099 2.79027e-07 -1.43803e-07 -1.52157e-07
40 3 4.30975 2.76115 2.61897 1.1614e-07 -2.21355e-07 -1.12241e-07
3 1 1.36471 6.51893 1.11398 -1.1429e-07 -1.75957e-07 -5.99373e-08
26 3 -0.035326 4.62459 1.16108 3.91404e-07 2.75569e-07 -6.56034e-08
34 3 2.85949 4.59264 1.13285 -3.50575e-07 -4.98873e-09 2.70681e-08
8 1 6.84403 6.48503 0.964373 7.00937e-08 9.08715e-08 -3.13957e-07
15 4 4.15664 4.34776 2.051 -1.67967e-07 6.23336e-07 9.01552e-07
43 3 5.51767 4.67101 1.27209 7.15611e-07 2.36578e-07 -1.07218e-07
21 4 9.75734 4.90813 2.03704 3.79992e-07 -2.97857e-07 3.83926e-09
52 3 8.42563 4.68038 1.16927 -8.17799e-07 2.97516e-07 -3.18621e-07
58 3 9.79885 6.48528 2.60914 4.79353e-08 -2.98783e-07 1.59655e-07
37 3 3.7917 -0.85216 5.71456 -3.7251e-08 1.4061e-07 -2.01736e-07
38 3 4.35458 0.299777 3.45993 -3.11087e-07 -6.44708e-07 5.28008e-07
46 3 6.48519 0.187895 5.99579 -8.22672e-08 -2.06949e-07 5.25154e-08
60 2 4.66632 -0.392577 5.80498 1.83589e-07 -7.27576e-08 -9.79968e-09
61 2 6.25693 -0.343381 3.57858 -5.01034e-07 1.92178e-07 5.99273e-08
1 1 10.9996 -0.524274 4.66431 1.53886e-07 1.60259e-07 -9.55187e-08
19 4 7.44578 -0.987194 5.30686 -8.15937e-07 5.81827e-07 -3.65246e-07
54 3 8.9808 -0.924343 5.74663 4.22539e-08 -2.11838e-07 -2.06879e-07
13 4 1.81354 2.73698 5.2992 -2.63785e-07 -6.21717e-07 -4.1099e-07
28 3 0.845309 3.90743 5.98682 -3.15964e-07 1.0449e-07 6.19717e-07
29 3 1.08245 1.30477 5.77705 3.47634e-07 -3.80859e-09 4.31699e-07
30 3 1.491 2.90882 3.67071 6.91036e-07 -2.41021e-07 4.29801e-07
36 3 3.34521 2.80432 5.74921 -2.7407e-07 1.34649e-07 7.30241e-08
59 2 0.629122 3.38118 3.57116 -4.45574e-07 3.14985e-07 -1.15717e-07
6 1 5.35915 3.20782 4.66187 -1.43364e-07 3.85309e-08 1.32461e-07
20 4 8.95503 2.75433 4.07946 -1.40317e-07 2.1865e-07 3.71281e-07
49 3 7.41747 2.77931 3.63628 -2.84276e-07 5.57748e-08 -3.15104e-07
55 3 9.29577 2.87836 5.71094 -2.14198e-07 -2.34491e-07 9.91928e-08
56 3 9.74527 1.37122 3.55158 3.46309e-07 -8.26121e-07 -2.78772e-07
57 3 9.84696 4.02155 3.4455 7.39836e-08 -1.17366e-07 1.05568e-07
62 2 10.1711 3.33808 5.79997 4.78553e-07 -1.46638e-07 -5.93958e-08
14 4 3.29032 6.47654 4.07967 3.5029e-07 -1.69064e-07 -3.39928e-07
31 3 1.75717 6.49664 3.62224 2.64297e-07 -3.9895e-07 -2.09447e-07
39 3 4.09221 5.10024 3.55381 -5.86159e-08 7.63072e-07 -3.12088e-08
47 3 6.54009 5.03285 5.79183 -3.25019e-07 1.95114e-08 -1.25239e-07
48 3 6.94143 6.63087 3.67961 1.23104e-07 -1.23737e-07 4.80892e-07
12 4 1.08692 0.53216 7.27007 1.42824e-07 2.23708e-08 -2.8416e-07
24 3 -0.267187 0.831328 8.08886 1.55174e-07 1.95736e-07 -6.04149e-08
27 3 1.05203 -1.04647 6.68089 1.16275e-07 -2.53351e-07 -3.38341e-07
32 3 2.38023 0.794872 8.17963 8.31968e-08 -3.34737e-07 1.47268e-07
4 1 3.94636 -1.03271 8.38114 -5.98903e-08 4.01901e-09 3.73272e-07
17 4 6.54257 1.13692 7.36605 7.94023e-08 1.56067e-07 -4.35359e-07
41 3 5.21934 0.895972 8.24193 4.48262e-07 4.09431e-08 6.84469e-07
9 1 9.35178 -0.988137 8.27538 2.77554e-07 -1.27217e-07 -3.59017e-07
50 3 7.88345 0.918264 8.23433 -2.02e-07 -4.88216e-09 -1.88402e-07
5 1 3.72927 2.73538 8.26017 1.93441e-07 1.8201e-07 5.46202e-08
18 4 6.54318 4.26261 7.28605 -1.38769e-07 -3.068e-07 5.16142e-07
45 3 6.45035 2.68228 6.71216 6.69215e-09 2.60212e-07 4.90775e-07
10 1 9.42939 2.69712 8.36933 1.31096e-07 -2.38224e-07 8.19114e-08
11 4 0.911157 4.86485 7.35242 -1.63146e-07 1.16024e-07 -4.06507e-07
33 3 2.23977 4.62844 8.23516 8.63388e-08 2.04116e-07 -2.5479e-07
42 3 5.20376 4.57883 8.12205 6.59998e-07 -2.55577e-09 -1.59024e-07
23 3 10.6898 4.64498 8.21481 -1.93449e-07 2.98371e-07 1.24532e-07
51 3 7.84974 4.50886 8.18019 -4.06431e-07 -1.78018e-07 -4.04019e-07
