ITEM: TIMESTEP
5523
ITEM: NUMBER OF ATOMS
88
ITEM: BOX BOUNDS xy xz yz pp pp pp
-5.2903185301738098e-03 9.8348968154821730e+00 2.7253850193665183e+00
-3.4621685492160015e-01 6.2552557691517219e+00 3.0052147758548087e-01
-2.4738044364763923e-01 2.2652826800647766e+01 -2.7577605976990938e-01
ITEM: ATOMS id type x y z fx fy fz
62 2 2.42323 2.08672 1.22244 1.26956 -0.174924 0.219155
76 2 7.62684 2.58565 2.05614 1.65974 0.467812 0.140896
23 3 3.19374 1.47141 0.715055 1.35454 1.33451 0.560627
64 2 4.09007 1.9979 0.898921 -2.57836 -1.28792 -0.113297
80 2 3.54142 0.0235536 1.54386 -0.0380345 1.02533 -0.232979
73 2 6.81598 0.133545 22.2217 0.568698 0.338001 0.654628
39 3 6.42346 1.0593 2.89454 -0.3168 0.446854 -0.0572917
44 3 7.06922 1.02982 22.5685 -0.601157 -0.29363 -0.694772
51 3 1.73521 3.00355 2.10028 -1.5244 -0.329528 0.51224
5 4 5.05277 4.5869 1.52817 -0.769372 0.749215 -0.0835992
20 3 3.71536 5.38086 1.95769 0.185922 0.0904808 -0.110165
28 3 5.13593 4.44132 -0.0686838 0.271687 -0.170319 -0.0672161
30 3 5.02867 3.10604 2.14847 0.357952 0.00155256 -0.077388
38 3 6.33782 5.47424 2.01013 0.770627 -0.543711 0.547645
57 2 8.27333 4.40854 0.462413 0.547328 -0.0609004 -0.793501
87 1 2.24685 2.40564 4.68733 -1.15108 0.00408569 -0.359327
48 3 1.41193 -0.0184744 4.56922 0.209036 -0.239837 -0.804834
6 4 5.44974 2.30141 3.54001 1.33054 -1.79593 -0.314994
24 3 4.17921 1.55654 4.11999 -0.508534 -0.218709 0.536849
58 2 1.77611 4.14014 3.0277 0.536775 0.10089 -0.122588
3 4 3.11886 6.03531 3.33512 -0.0512918 0.0775028 1.07436
15 3 8.8318 4.83696 3.86485 -0.331881 -0.636 -0.744215
36 3 6.37472 3.15564 4.51668 -0.12566 0.728246 0.359743
85 1 6.57626 5.54587 4.54352 -0.139894 0.418633 0.628886
11 4 2.36836 2.34264 7.69224 1.04958 0.018604 0.202706
45 3 1.02946 1.89081 6.91806 0.775194 0.0798036 -0.2697
55 3 3.17568 0.993192 8.2201 0.507022 -0.977895 -0.0372271
29 3 5.44499 0.310286 6.83367 -0.55587 -0.825606 0.290345
83 1 5.74697 2.7632 6.92941 -0.361509 -0.871256 -0.89131
33 3 5.53085 2.89325 9.25819 0.722679 0.912605 -1.07515
67 2 5.15426 2.44132 10.0119 -0.597729 -0.667797 1.13803
50 3 1.88859 3.07248 9.13357 0.588242 1.16684 0.336933
18 3 3.4086 3.24687 6.8153 -0.974594 0.24199 -0.0929459
81 1 3.64077 5.82352 6.84584 -0.145603 -0.0312676 -0.532569
31 3 5.962 5.00212 6.98377 0.163186 0.243895 -0.34194
19 3 3.35931 5.44728 9.33299 -0.0781656 -1.37792 -0.988842
9 4 6.9407 6.05418 7.71266 0.065958 1.46735 0.844743
43 3 7.4945 5.43596 9.2438 -0.37279 0.0131098 -0.501866
75 2 0.620173 0.0172087 9.7308 0.172336 0.881984 0.867361
66 2 3.36281 1.55418 11.1086 0.428284 0.174924 0.373559
61 2 4.11686 0.380683 10.5844 0.500867 -0.326952 -0.420925
26 3 4.28008 1.19644 11.0934 -0.884347 0.353076 0.259445
49 3 7.61988 1.24777 10.7903 0.314816 -0.634356 -0.0244185
78 2 7.92314 1.99956 10.2367 -0.173489 0.460864 0.00347067
77 2 7.09182 1.55048 11.5492 -0.211401 0.384526 0.435578
70 2 5.73676 3.8187 9.49131 -0.215494 -0.171225 0.342449
32 3 5.31012 4.11905 12.2074 0.771363 -0.555172 0.344529
68 2 6.16484 4.60076 12.2042 -0.171854 0.0529274 0.223997
69 2 5.65695 3.2571 12.922 0.153996 -0.134895 -0.725264
1 4 8.82206 4.60816 9.74493 -0.595742 -0.55465 0.529651
14 3 8.79422 4.40924 11.3743 -0.0890663 0.124371 -0.226844
12 4 2.8124 2.1185 14.8672 -1.46949 -1.79315 -1.18891
53 3 2.46559 2.85486 13.4625 0.325043 1.12615 -0.423498
22 3 3.43013 2.87447 16.0704 0.604006 1.45233 0.480563
56 3 3.6632 0.786278 14.5278 0.573788 -1.24724 0.0112816
65 2 5.55033 1.53576 13.3089 -0.613264 -0.418304 -0.037835
35 3 6.24443 2.17203 13.4983 0.220055 0.777103 0.500947
13 3 5.65993 -0.191829 16.0248 -0.401727 -0.525475 -0.364437
84 1 5.78116 2.52581 16.2376 0.397514 -0.895742 -0.0334187
47 3 1.26361 1.52793 15.2831 -0.412954 -0.0842165 0.437262
71 2 7.43417 1.56312 14.4885 0.159448 0.443863 -0.144501
21 3 3.56454 5.30821 13.4426 -2.22201 0.410496 0.711562
63 2 4.34034 4.92905 12.9291 0.728739 -0.696631 -0.524069
37 3 6.05332 4.78883 15.9002 0.148403 -0.234283 0.0622235
2 4 2.19123 4.42081 13.0107 1.06778 -0.542795 -0.35952
10 4 7.12246 5.68335 15.1081 0.746178 1.66534 -1.41857
46 3 7.59836 4.95595 13.608 -0.0838354 0.716819 1.30148
88 1 2.59206 2.2523 18.1646 -0.240035 0.584016 0.52408
52 3 2.11264 0.0225667 18.3338 0.772765 0.0278605 -0.427545
8 4 6.0241 1.97191 19.3364 0.821735 0.488601 -3.36872
27 3 4.81199 1.52303 18.3379 -0.124499 -0.140224 0.706878
17 3 2.80235 4.71399 18.434 -0.0884544 0.146586 0.249624
82 1 3.84569 5.40941 16.116 -0.598503 0.0448245 0.436614
4 4 3.71752 5.75008 19.3004 -1.34375 -0.0655887 0.0102391
41 3 7.03729 2.87824 18.3755 -0.428109 0.00141264 0.527517
86 1 7.36748 5.38791 18.1502 -0.058435 -0.0103661 0.0142569
54 3 2.52514 2.06007 20.8695 -0.545637 -1.14071 0.557375
79 2 2.03183 1.34075 21.3955 0.366995 0.92252 -0.65402
60 2 3.4682 1.8109 20.9917 -0.125322 0.131166 0.267663
34 3 5.47844 2.7459 20.669 0.0646695 -0.235272 0.729042
72 2 6.60229 1.559 21.8739 0.323416 -0.107225 0.58316
40 3 6.79964 0.679617 19.9308 0.835471 -1.73875 -0.16641
7 4 5.60061 4.25106 21.2407 -0.76971 2.06444 -1.24614
25 3 4.27046 5.05032 20.7068 0.822884 0.139388 -0.114959
59 2 1.97169 3.34352 21.9791 0.872293 1.72058 0.847251
16 3 8.89782 4.28488 22.4227 -1.21799 -1.64763 -0.167267
42 3 6.96482 5.09553 20.659 -0.0247399 -0.913727 1.4658
74 2 7.77244 4.91597 21.288 -0.794534 0.0942492 -0.507662
