ITEM: TIMESTEP
523
ITEM: NUMBER OF ATOMS
88
ITEM: BOX BOUNDS xy xz yz pp pp pp
0.0000000000000000e+00 9.7624157930000006e+00 2.6646871069999998e+00
-2.6981789499999997e-01 6.1848149740000000e+00 2.9402868599999998e-01
0.0000000000000000e+00 2.2405446356999999e+01 -2.6981789499999997e-01
ITEM: ATOMS id type x y z fx fy fz
51 3 2.00628 2.98483 2.60995 1.38365e-07 1.68173e-08 2.76386e-07
76 2 1.1883 3.06571 2.08745 8.68581e-08 -1.48846e-07 -4.1852e-07
23 3 3.40499 1.47887 1.03501 -2.52289e-07 3.08063e-07 1.64515e-07
62 2 3.02614 2.11643 1.72787 2.31258e-07 -3.35827e-07 -4.45862e-07
64 2 4.28773 1.84498 0.834975 -1.70102e-07 1.5024e-07 -3.3816e-07
80 2 3.86275 0.116875 1.90097 3.98302e-07 1.52267e-07 -6.14741e-07
44 3 0.848709 2.09808 0.121753 -1.99192e-07 6.10209e-07 -5.37284e-08
73 2 1.66299 1.63155 0.418964 5.07244e-07 -3.16402e-07 4.18303e-07
58 2 2.07904 3.93947 3.15623 1.42977e-07 -4.69776e-07 5.61635e-07
5 4 5.22276 4.59494 1.76628 4.92333e-08 1.53655e-06 6.07863e-07
20 3 3.87792 5.42558 2.10278 7.34985e-07 -2.52229e-07 -1.50368e-07
28 3 5.26886 4.43468 0.168608 -5.97246e-08 -8.52595e-08 -3.16011e-07
30 3 5.21157 3.11496 2.40297 5.59372e-08 -1.25337e-06 7.80941e-07
38 3 6.58606 5.37838 2.30125 -7.19239e-08 -8.50096e-07 1.69242e-07
16 3 8.85291 5.77058 22.201 -3.75576e-07 3.09508e-07 1.8638e-07
57 2 8.63329 5.59352 0.662074 4.36317e-07 1.86723e-07 5.55819e-07
87 1 2.09066 2.37241 4.90615 2.47126e-08 4.47107e-07 -7.31864e-07
6 4 5.58736 2.24938 3.78336 -6.89157e-07 -1.18051e-06 -7.45911e-07
24 3 4.27214 1.68518 4.50668 1.07062e-06 6.67537e-07 -1.75386e-07
39 3 6.44741 0.994906 3.13682 -5.28696e-07 7.1352e-07 5.15291e-07
3 4 3.22387 5.89931 3.54064 -9.77816e-07 1.53887e-07 -7.60963e-08
36 3 6.52435 3.14176 4.76074 -4.09621e-08 -2.00236e-07 -5.48296e-08
48 3 1.68363 0.0256084 4.6403 3.80269e-07 2.0696e-07 5.73337e-08
85 1 6.70825 5.53391 4.83635 2.32015e-07 -6.02888e-08 -7.0913e-08
15 3 2.22191 4.68051 4.0505 -4.40485e-08 -6.20324e-08 -2.4853e-07
11 4 2.43344 2.29219 7.87203 -1.58215e-08 -5.37982e-07 3.79422e-07
55 3 3.42004 1.06243 8.4181 -1.4675e-07 2.50013e-07 -7.16152e-08
29 3 5.41036 0.0925832 6.87613 -7.44168e-08 -1.84338e-07 1.13847e-07
83 1 5.68407 2.5712 6.88512 -4.03265e-07 1.71008e-07 2.18704e-07
45 3 1.1323 1.73894 7.09756 9.21529e-08 1.92828e-07 3.1521e-07
18 3 3.28784 3.26902 6.90771 2.25727e-08 -1.23309e-07 -4.26222e-08
19 3 3.26805 5.37828 9.33575 5.14928e-07 -7.3706e-08 -7.71482e-08
50 3 2.03032 3.00839 9.30765 -1.5915e-07 -4.09747e-08 -2.74543e-07
81 1 3.53579 5.59588 6.82458 2.31138e-07 1.41394e-07 2.57652e-08
9 4 6.85014 5.87603 7.85235 -2.55874e-07 5.26531e-07 3.67862e-07
31 3 5.80909 4.9228 7.07269 7.6996e-08 -3.18061e-07 1.76226e-07
33 3 5.50455 2.49553 9.45347 -3.73261e-07 1.705e-07 6.946e-08
70 2 5.26631 3.23366 10.0842 1.22966e-07 -1.52152e-07 6.12712e-08
43 3 7.36306 5.24213 9.30509 2.85069e-07 -3.36596e-07 1.09804e-07
49 3 7.20602 1.21926 11.1611 -1.26927e-07 -2.33271e-07 8.24793e-08
75 2 0.697132 -0.0296949 9.95612 1.36117e-08 -8.48675e-08 1.58301e-07
77 2 6.72179 1.80727 10.52 -3.20306e-07 2.60137e-07 -1.22909e-07
78 2 1.33803 1.51779 11.1904 2.19228e-07 3.0821e-07 -3.07607e-09
26 3 3.05391 0.434903 11.4226 -2.61362e-08 -5.35715e-07 -1.21037e-06
61 2 3.84468 0.345109 10.8553 -1.22619e-06 2.83387e-07 7.47234e-07
65 2 4.98255 1.63422 13.3573 2.44184e-07 -1.56691e-07 -2.66994e-07
66 2 3.34459 0.606426 12.35 9.06925e-08 -2.56727e-07 4.38173e-07
67 2 4.68236 1.95571 9.36956 -2.57801e-07 -6.01341e-07 -9.06751e-08
32 3 4.98929 4.05405 11.5581 6.33703e-07 2.38292e-08 3.17455e-07
63 2 4.04052 5.00076 12.9225 1.02683e-06 -1.38475e-07 -2.79758e-07
68 2 5.45871 4.9321 11.4807 4.21688e-09 -6.56847e-07 3.09599e-07
69 2 5.46113 3.48793 12.2279 -4.11456e-07 -5.7336e-08 -4.02714e-07
1 4 8.73085 4.53088 9.81753 -3.53641e-07 -1.4478e-07 -3.21196e-07
14 3 8.59624 4.48377 11.4116 4.15691e-07 3.43353e-08 1.28859e-07
12 4 2.6221 2.04394 14.8011 4.02863e-07 5.59561e-07 -3.72762e-07
47 3 1.33738 1.54269 15.6261 -4.1325e-07 1.57062e-07 4.56152e-07
53 3 2.26775 2.73159 13.3253 -4.43527e-07 8.02332e-07 -4.79067e-07
22 3 3.55063 2.99863 15.715 -6.31421e-07 -1.04904e-07 2.88157e-07
35 3 5.80469 2.17211 13.3242 3.03624e-07 -5.02799e-07 -2.34287e-07
56 3 3.5268 0.745958 14.2062 4.13897e-07 -2.70974e-07 4.89095e-07
71 2 6.43556 1.67672 12.7371 -5.18506e-08 8.35666e-08 1.63745e-07
84 1 5.92218 2.3881 15.9461 5.18929e-09 4.423e-08 1.72862e-07
2 4 8.81861 4.29368 12.9883 4.06847e-07 -1.90656e-07 1.0435e-06
21 3 3.28273 5.24946 13.5047 -1.33347e-06 1.56491e-07 5.87182e-07
10 4 6.9758 5.64574 14.9601 -8.22114e-07 -7.36345e-07 -4.22038e-07
46 3 7.43163 4.76238 13.6508 1.0762e-07 2.20399e-07 1.14125e-07
52 3 2.20269 0.00644673 18.1932 -3.5932e-07 -2.18202e-07 5.75766e-08
88 1 2.47668 2.36701 17.8934 -3.32553e-07 1.27497e-07 5.51046e-08
8 4 5.98939 2.08496 18.9816 -2.15309e-07 4.60084e-07 6.36956e-07
13 3 5.56648 -0.0139385 15.8202 1.8684e-07 4.64123e-07 2.97493e-07
27 3 4.71003 1.60886 18.1309 -1.17229e-07 -1.16668e-07 -1.58691e-07
41 3 6.96373 3.02089 18.0895 -2.61702e-09 2.00703e-07 2.22705e-08
17 3 2.6877 4.697 18.2195 2.31369e-07 -9.16288e-08 -3.68009e-07
4 4 3.6037 5.72099 19.0718 -1.05092e-07 4.58414e-07 -8.63155e-08
37 3 5.96023 4.77347 15.855 2.41373e-07 6.95723e-07 -7.10145e-07
82 1 3.68211 5.3785 16.0404 -3.17716e-08 2.27535e-07 -2.34389e-08
86 1 7.14093 5.41702 17.9755 -8.21578e-09 -4.16421e-07 -1.70473e-07
54 3 2.53042 2.41311 20.3023 3.79954e-07 4.27243e-07 -1.26909e-07
79 2 1.91257 2.18822 21.0467 3.33538e-08 3.46674e-07 -2.50406e-07
34 3 5.48389 2.8593 20.3738 3.66645e-07 -4.92022e-07 -5.84439e-07
40 3 6.78563 0.775303 19.5991 9.18551e-08 1.27328e-07 1.66468e-07
60 2 3.43801 2.28364 20.6323 2.98083e-07 2.85512e-07 -1.57347e-07
72 2 6.96454 1.39594 0.0117355 -2.17599e-07 -3.07934e-07 -3.19589e-07
59 2 2.81658 5.43332 21.658 6.3265e-07 -3.44374e-07 -3.87842e-07
7 4 5.50976 4.35628 20.9769 -2.50659e-07 1.60022e-07 -7.92468e-07
25 3 4.12129 5.11967 20.5745 4.68031e-07 -1.21384e-07 3.22062e-07
42 3 6.81103 5.23614 20.4735 1.22821e-07 -2.67348e-08 3.88601e-07
74 2 7.52513 5.42736 21.1455 -2.79613e-07 -3.69753e-08 -3.2597e-07
