LAMMPS (29 Sep 2021 - Update 2)
OMP_NUM_THREADS environment is not set. Defaulting to 1 thread. (src/comm.cpp:98)
  using 1 OpenMP thread(s) per MPI task

units	metal
atom_style atomic
boundary    p p p
newton off
#neighbor 1.0 bin
neigh_modify delay 0 every 1 check yes
#neigh_modify once no every 1 delay 0 check yes

box tilt large
read_data tob9_ref_deepmd.data
Reading data file ...
  triclinic box = (0.0000000 0.0000000 0.0000000) to (11.114968 7.4513556 9.3746986) with tilt (-0.17419075 -0.15353827 -1.9248620)
  1 by 1 by 1 MPI processor grid
  reading atoms ...
  62 atoms
  read_data CPU = 0.000 seconds

pair_style	nequip
pair_coeff	* * tob9_l3-deployed.pth Ca H O Si
mass            1 40.079800
mass            4 28.08500
mass            3 15.9994
mass            2 1.00794


#kspace_style    ewald 1.0e-6

velocity all create 300 4928459 rot yes dist gaussian #温度初始化
timestep 0.001

thermo 100
thermo_style  custom step temp press etotal lx ly lz xy xz yz pxx pyy pzz

min_style cg
minimize 1.0e-15 1.0e-15 100000 100000
Neighbor list info ...
  update every 1 steps, delay 0 steps, check yes
  max neighbors/atom: 2000, page size: 100000
  master list distance cutoff = 6
  ghost atom cutoff = 6
  binsize = 3, bins = 4 4 4
  1 neighbor lists, perpetual/occasional/extra = 1 0 0
  (1) pair nequip, perpetual
      attributes: full, newton off
      pair build: full/bin/atomonly
      stencil: full/bin/3d
      bin: standard
Per MPI rank memory allocation (min/avg/max) = 4.207 | 4.207 | 4.207 Mbytes
Step Temp Press TotEng Lx Ly Lz Xy Xz Yz Pxx Pyy Pzz 
       0          300    23229.616   -448.74962    11.114968    7.4513556    9.3746986  -0.17419075  -0.15353827    -1.924862      28912.6    14649.484    26126.765 
      45          300     3879.728   -454.09706    11.114968    7.4513556    9.3746986  -0.17419075  -0.15353827    -1.924862    11364.861   -7265.1866    7539.5092 
Loop time of 20.5298 on 1 procs for 45 steps with 62 atoms

99.3% CPU use with 1 MPI tasks x 1 OpenMP threads

Minimization stats:
  Stopping criterion = energy tolerance
  Energy initial, next-to-last, final = 
     -451.115081787109  -456.462524414062  -456.462524414062
  Force two-norm initial, final = 21.368531 0.047639776
  Force max component initial, final = 7.2417879 0.010323424
  Final line search alpha, max atom move = 1.0000000 0.010323424
  Iterations, force evaluations = 45 89

MPI task timing breakdown:
Section |  min time  |  avg time  |  max time  |%varavg| %total
---------------------------------------------------------------
Pair    | 20.528     | 20.528     | 20.528     |   0.0 | 99.99
Neigh   | 0          | 0          | 0          |   0.0 |  0.00
Comm    | 0.00050497 | 0.00050497 | 0.00050497 |   0.0 |  0.00
Output  | 0          | 0          | 0          |   0.0 |  0.00
Modify  | 0          | 0          | 0          |   0.0 |  0.00
Other   |            | 0.0009997  |            |       |  0.00

Nlocal:        62.0000 ave          62 max          62 min
Histogram: 1 0 0 0 0 0 0 0 0 0
Nghost:        731.000 ave         731 max         731 min
Histogram: 1 0 0 0 0 0 0 0 0 0
Neighs:         0.00000 ave           0 max           0 min
Histogram: 1 0 0 0 0 0 0 0 0 0
FullNghs:      4326.00 ave        4326 max        4326 min
Histogram: 1 0 0 0 0 0 0 0 0 0

Total # of neighbors = 4326
Ave neighs/atom = 69.774194
Neighbor list builds = 0
Dangerous builds = 0

fix 4 all nve
fix 5 all langevin 300.0 300.0 0.1 12345

run 5000
Per MPI rank memory allocation (min/avg/max) = 3.082 | 3.082 | 3.082 Mbytes
Step Temp Press TotEng Lx Ly Lz Xy Xz Yz Pxx Pyy Pzz 
      45          300    3879.6929   -454.09706    11.114968    7.4513556    9.3746986  -0.17419075  -0.15353827    -1.924862    11364.796   -7265.1915    7539.4737 
     100    187.32614    13429.146   -452.86939    11.114968    7.4513556    9.3746986  -0.17419075  -0.15353827    -1.924862    23466.624   -7625.1985    24446.013 
     200    241.42989   -427.04959   -452.51637    11.114968    7.4513556    9.3746986  -0.17419075  -0.15353827    -1.924862    15316.453   -22626.723    6029.1204 
     300     251.2638    10614.175   -452.31746    11.114968    7.4513556    9.3746986  -0.17419075  -0.15353827    -1.924862    25398.628    -8456.235    14900.133 
     400    285.07438     6744.547   -452.11395    11.114968    7.4513556    9.3746986  -0.17419075  -0.15353827    -1.924862    29032.495    -22371.01    13572.157 
     500    295.58038     136.3719    -451.6523    11.114968    7.4513556    9.3746986  -0.17419075  -0.15353827    -1.924862    14507.197   -22407.132    8309.0502 
     600    310.97164    11892.038   -451.70169    11.114968    7.4513556    9.3746986  -0.17419075  -0.15353827    -1.924862    25197.347   -8786.4648    19265.232 
     700    322.71953    7669.6986   -451.49257    11.114968    7.4513556    9.3746986  -0.17419075  -0.15353827    -1.924862    21317.135   -4814.7904    6506.7515 
     800    353.22367    8177.6914   -451.28083    11.114968    7.4513556    9.3746986  -0.17419075  -0.15353827    -1.924862    19760.644   -9184.7448    13957.175 
     900    331.17127    7998.0925   -451.47335    11.114968    7.4513556    9.3746986  -0.17419075  -0.15353827    -1.924862    26179.416   -2242.1746     57.03572 
    1000    249.24878    10896.053    -452.2353    11.114968    7.4513556    9.3746986  -0.17419075  -0.15353827    -1.924862    16778.899   -326.19512    16235.455 
    1100    299.55243      15468.2   -451.60322    11.114968    7.4513556    9.3746986  -0.17419075  -0.15353827    -1.924862    27012.777    4328.7887    15063.034 
    1200    286.62704    22408.589   -451.38558    11.114968    7.4513556    9.3746986  -0.17419075  -0.15353827    -1.924862    14001.314    8228.7769    44995.675 
    1300    268.02024    11157.495   -451.80994    11.114968    7.4513556    9.3746986  -0.17419075  -0.15353827    -1.924862    27852.439    6186.4029    -566.3569 
    1400    233.22145    16989.284   -452.08237    11.114968    7.4513556    9.3746986  -0.17419075  -0.15353827    -1.924862    32824.328   -11523.112    29666.638 
    1500    280.22444    5819.9645   -452.01868    11.114968    7.4513556    9.3746986  -0.17419075  -0.15353827    -1.924862     12707.85    -1991.601    6743.6447 
    1600    271.91465    2939.4419   -452.18979    11.114968    7.4513556    9.3746986  -0.17419075  -0.15353827    -1.924862    12201.028   -6119.8408    2737.1388 
    1700    288.36054    14578.053   -451.49435    11.114968    7.4513556    9.3746986  -0.17419075  -0.15353827    -1.924862    31613.567   -5092.3496    17212.942 
    1800    289.59878    7775.7298   -451.80267    11.114968    7.4513556    9.3746986  -0.17419075  -0.15353827    -1.924862    27661.967   -7131.6075    2796.8298 
    1900    311.61808   -5752.8478   -451.99856    11.114968    7.4513556    9.3746986  -0.17419075  -0.15353827    -1.924862    3682.6806   -15551.749   -5389.4753 
    2000    263.01362    7194.6409   -452.19174    11.114968    7.4513556    9.3746986  -0.17419075  -0.15353827    -1.924862    7631.9358   -8713.6624    22665.649 
    2100    253.18627    4237.3597   -452.23858    11.114968    7.4513556    9.3746986  -0.17419075  -0.15353827    -1.924862    15600.895    -3021.112    132.29555 
    2200     280.1953    2150.5721   -451.84484    11.114968    7.4513556    9.3746986  -0.17419075  -0.15353827    -1.924862    1405.3052    676.74185    4369.6692 
    2300    322.21537    5816.0812    -451.7781    11.114968    7.4513556    9.3746986  -0.17419075  -0.15353827    -1.924862    19438.605   -6800.0353    4809.6742 
    2400    287.11732   -250.63956   -452.03104    11.114968    7.4513556    9.3746986  -0.17419075  -0.15353827    -1.924862     16623.73   -22833.315    5457.6669 
    2500    308.08296    9432.2012   -451.56818    11.114968    7.4513556    9.3746986  -0.17419075  -0.15353827    -1.924862    29513.765   -21168.724    19951.563 
    2600    294.23927     8064.062   -451.38824    11.114968    7.4513556    9.3746986  -0.17419075  -0.15353827    -1.924862    36055.506   -28204.473    16341.153 
    2700    328.36956    16130.278   -451.68474    11.114968    7.4513556    9.3746986  -0.17419075  -0.15353827    -1.924862    33728.649   -14119.404     28781.59 
    2800    279.81007    19342.227   -452.06055    11.114968    7.4513556    9.3746986  -0.17419075  -0.15353827    -1.924862    25191.952    12630.107    20204.623 
    2900    257.19332    -2441.524   -452.04006    11.114968    7.4513556    9.3746986  -0.17419075  -0.15353827    -1.924862    2330.4341   -15465.453    5810.4463 
    3000    284.10607    1761.0356   -451.64606    11.114968    7.4513556    9.3746986  -0.17419075  -0.15353827    -1.924862    14079.919   -20308.695    11511.883 
    3100    293.55944    1864.5471   -451.20125    11.114968    7.4513556    9.3746986  -0.17419075  -0.15353827    -1.924862    16980.798   -17597.577    6210.4208 
    3200    258.29742   -1486.6506     -451.998    11.114968    7.4513556    9.3746986  -0.17419075  -0.15353827    -1.924862    12850.106   -12705.994   -4604.0639 
    3300    329.13331   -584.85746   -451.75273    11.114968    7.4513556    9.3746986  -0.17419075  -0.15353827    -1.924862    18268.714   -8264.1207   -11759.165 
    3400     334.3444   -4383.9458   -451.29629    11.114968    7.4513556    9.3746986  -0.17419075  -0.15353827    -1.924862    12184.022   -23837.409   -1498.4497 
    3500    334.46553    1903.3401   -451.56585    11.114968    7.4513556    9.3746986  -0.17419075  -0.15353827    -1.924862     18670.95   -24355.462    11394.533 
    3600    295.05364    18072.681   -451.15102    11.114968    7.4513556    9.3746986  -0.17419075  -0.15353827    -1.924862    23739.001    4657.7084    25821.333 
    3700    316.55388    15632.201   -451.52486    11.114968    7.4513556    9.3746986  -0.17419075  -0.15353827    -1.924862    25746.166   -3003.9444    24154.381 
    3800    268.76296    92.069327     -451.986    11.114968    7.4513556    9.3746986  -0.17419075  -0.15353827    -1.924862    17497.213   -21577.276    4356.2715 
    3900    341.65524    13389.355   -451.44885    11.114968    7.4513556    9.3746986  -0.17419075  -0.15353827    -1.924862    22990.087   -9779.5169    26957.494 
    4000    312.08788    7433.9891   -451.46837    11.114968    7.4513556    9.3746986  -0.17419075  -0.15353827    -1.924862    20322.442    642.47955    1337.0454 
    4100    357.01092    1928.1865   -450.67684    11.114968    7.4513556    9.3746986  -0.17419075  -0.15353827    -1.924862    14845.091   -12162.081    3101.5495 
    4200    324.66449     1524.065   -451.51465    11.114968    7.4513556    9.3746986  -0.17419075  -0.15353827    -1.924862    26104.697   -23260.548    1728.0451 
    4300    291.64771     9457.153   -451.37621    11.114968    7.4513556    9.3746986  -0.17419075  -0.15353827    -1.924862    32455.184   -6658.4193    2574.6937 
    4400    283.86347    12915.808   -452.04147    11.114968    7.4513556    9.3746986  -0.17419075  -0.15353827    -1.924862    15962.832     2179.412    20605.179 
    4500    283.04377   -3613.5003   -451.74663    11.114968    7.4513556    9.3746986  -0.17419075  -0.15353827    -1.924862    16722.126   -27784.174    221.54718 
    4600     300.2844     1438.221   -451.87094    11.114968    7.4513556    9.3746986  -0.17419075  -0.15353827    -1.924862    15310.108   -14460.346     3464.901 
    4700    302.43082    13567.054   -451.97179    11.114968    7.4513556    9.3746986  -0.17419075  -0.15353827    -1.924862    29901.535   -7768.4447    18568.071 
    4800    304.60271     15399.16   -451.68888    11.114968    7.4513556    9.3746986  -0.17419075  -0.15353827    -1.924862    30910.398   -10128.306    25415.389 
    4900    361.39427    3995.2489   -450.84125    11.114968    7.4513556    9.3746986  -0.17419075  -0.15353827    -1.924862    18781.739   -19636.297    12840.305 
    5000    325.73604    16966.313   -451.27417    11.114968    7.4513556    9.3746986  -0.17419075  -0.15353827    -1.924862    26422.413    -11286.25    35762.776 
    5045     355.9447   -2174.7986   -451.26081    11.114968    7.4513556    9.3746986  -0.17419075  -0.15353827    -1.924862    14645.352   -18715.616   -2454.1314 
Loop time of 771.95 on 1 procs for 5000 steps with 62 atoms

Performance: 0.560 ns/day, 42.886 hours/ns, 6.477 timesteps/s
99.6% CPU use with 1 MPI tasks x 1 OpenMP threads

MPI task timing breakdown:
Section |  min time  |  avg time  |  max time  |%varavg| %total
---------------------------------------------------------------
Pair    | 771.84     | 771.84     | 771.84     |   0.0 | 99.99
Neigh   | 0.016121   | 0.016121   | 0.016121   |   0.0 |  0.00
Comm    | 0.018443   | 0.018443   | 0.018443   |   0.0 |  0.00
Output  | 0.0037091  | 0.0037091  | 0.0037091  |   0.0 |  0.00
Modify  | 0.056807   | 0.056807   | 0.056807   |   0.0 |  0.01
Other   |            | 0.01222    |            |       |  0.00

Nlocal:        62.0000 ave          62 max          62 min
Histogram: 1 0 0 0 0 0 0 0 0 0
Nghost:        685.000 ave         685 max         685 min
Histogram: 1 0 0 0 0 0 0 0 0 0
Neighs:         0.00000 ave           0 max           0 min
Histogram: 1 0 0 0 0 0 0 0 0 0
FullNghs:      4378.00 ave        4378 max        4378 min
Histogram: 1 0 0 0 0 0 0 0 0 0

Total # of neighbors = 4378
Ave neighs/atom = 70.612903
Neighbor list builds = 33
Dangerous builds = 0

unfix 4
unfix 5

#fix 1 all npt temp 300.0 300.0 10.0 iso 0.0 0.0 1000.0
#fix 1 all box/relax tri 0.0 vmax 1.0
fix 1 all npt temp 300 300 0.1 aniso 1.01325 1.01325 1.0




run 10000
Per MPI rank memory allocation (min/avg/max) = 3.098 | 3.098 | 3.098 Mbytes
Step Temp Press TotEng Lx Ly Lz Xy Xz Yz Pxx Pyy Pzz 
    5045     355.9447   -2174.8143   -451.26081    11.114968    7.4513556    9.3746986  -0.17419075  -0.15353827    -1.924862    14645.323   -18715.616   -2454.1501 
    5100     334.0866    308.25341    -451.3427    11.189592    7.4224555    9.3802169  -0.17351515  -0.15362865    -1.925995    14044.901   -18854.417    5734.2766 
    5200    326.84556   -4132.8752   -451.62709    11.472255     7.300896     9.498176  -0.17067345  -0.15556058    -1.950215   -8169.9528    5531.6965   -9760.3694 
    5300    256.18665    6307.6493   -452.30898    11.245552    7.2736813     9.541935  -0.17003725  -0.15627726   -1.9591998      18096.3     11745.38   -10918.732 
    5400     264.0798   -2088.1919   -452.18257    11.247676    7.3737346    9.5128798   -0.1723762   -0.1558014    -1.953234    12766.782   -15070.637   -3960.7201 
    5500    288.97316   -5606.8532   -451.84322    11.449684    7.3410032    9.4414479  -0.17161104  -0.15463149   -1.9385673   -12207.828   -6331.1382    1718.4066 
    5600    300.89734    1873.3484   -451.51864    11.338659    7.3086666    9.4664833   -0.1708551  -0.15504152   -1.9437077    7714.5514   -12129.356     10034.85 
    5700    292.23115     -9872.52   -451.51312    11.275067     7.360214    9.5649382  -0.17206013    -0.156654   -1.9639229   -7166.4841   -20599.288   -1851.7884 
    5800      317.767   -11612.156   -451.66877    11.380235    7.3276382    9.5239909   -0.1712986  -0.15598337   -1.9555154   -12836.797   -7919.8954   -14079.774 
    5900     288.5921   -2146.0811   -451.81903    11.325342    7.2947859     9.409422  -0.17053061  -0.15410697   -1.9319915   -10058.316     17075.84   -13455.767 
    6000     293.4657   -10250.557   -451.80539    11.292958    7.4465959    9.4223435  -0.17407949   -0.1543186   -1.9346447    -386.7215   -12183.212   -18181.738 
    6100    327.14442    18457.806   -451.63313    11.210916    7.3339746    9.4933275  -0.17144673  -0.15548117   -1.9492195    18528.913    19963.442    16881.062 
    6200    340.97553    650.40962   -450.89104    11.348702    7.2816139    9.6070648  -0.17022269  -0.15734395   -1.9725726    -4621.224    5935.4434    637.00937 
    6300    325.45919    18120.221   -451.04244    11.277435    7.3564487    9.4425762  -0.17197211  -0.15464997   -1.9387989    23319.607   -1485.6297    32526.686 
    6400    325.63428   -876.41268    -451.6486    11.348838    7.3901009    9.4341962   -0.1727588  -0.15451272   -1.9370783    3150.2492    -16934.52    11155.032 
    6500    303.13506    7697.8389   -451.80767    11.399163    7.2358034    9.5554054  -0.16915178  -0.15649788   -1.9619656    969.25094    26170.374   -4046.1081 
    6600    289.11363   -2586.8515   -451.87956    11.257217     7.297958    9.5625891  -0.17060477  -0.15661553   -1.9634406   -748.19535   -8340.6517    1328.2925 
    6700    308.68388   -1914.8677   -451.80237    11.247195     7.372776    9.4268553  -0.17235379  -0.15439249    -1.935571   -6894.9306   -4731.2315    5881.5588 
    6800    274.12586   -8789.6939   -451.65234    11.302884    7.3972319    9.4528078   -0.1729255  -0.15481754   -1.9408997   -20603.635   -14803.516    9038.0689 
    6900    316.54863   -19080.597   -451.38952    11.278281    7.3467629    9.4849524  -0.17174568    -0.155344   -1.9474998    -16229.97   -15899.698   -25112.122 
    7000    298.41258   -10046.668   -451.36065    11.308334    7.3338361    9.4528323  -0.17144349  -0.15481794   -1.9409048   -16505.797   -14603.377    969.16997 
    7100    302.35774   -10730.536   -451.82222     11.26503    7.3856477    9.4749133   -0.1726547  -0.15517958   -1.9454386   -18464.153   -7617.3117   -6110.1431 
    7200    301.87032   -5547.9616   -452.10685    11.252561    7.3530974    9.5151172  -0.17189376  -0.15583804   -1.9536934   -6230.2767    6773.3884   -17186.997 
    7300    304.17902   -7757.1856   -452.02752     11.32752    7.3365444    9.5001316   -0.1715068  -0.15559261   -1.9506165   -20031.761   -11438.294     8198.498 
    7400     331.0013    1952.8811   -451.29378    11.258849    7.3347005    9.4894295   -0.1714637  -0.15541733   -1.9484191    12964.668    435.69749   -7541.7218 
    7500    323.16718    5121.3585   -451.19799    11.366236    7.3486047    9.5175884  -0.17178874  -0.15587851   -1.9542008    13103.562   -5087.8699    7348.3829 
    7600    272.89406     1377.885   -451.59589     11.33802     7.322382    9.5477894  -0.17117573  -0.15637314   -1.9604019    14739.475   -6374.6383   -4231.1815 
    7700    316.57655    12253.818   -451.96688     11.33262    7.2961352    9.5118975  -0.17056216  -0.15578531   -1.9530323    20658.368    11512.422     4590.664 
    7800    276.39641    3587.4125   -452.01316    11.373656    7.3895249    9.4574062  -0.17274533  -0.15489285   -1.9418439    13144.247    -14519.43    12137.421 
    7900    309.61192    13400.716   -451.68412    11.230578    7.2881586    9.4886374  -0.17037569  -0.15540436   -1.9482565    24314.365    17860.935   -1973.1515 
    8000    335.84645   -2522.2023   -450.99856    11.369977    7.4358321    9.5780248  -0.17382786  -0.15686834   -1.9666099    12184.084   -23276.539    3525.8477 
    8100    393.46645    9243.4252   -451.02754    11.248042    7.3508639    9.5045694  -0.17184155  -0.15566529   -1.9515277    14404.496    6694.6797    6631.0996 
    8200    325.52861    24092.141   -451.51376    11.192696    7.2897798    9.4813419  -0.17041359  -0.15528487   -1.9467585    38609.323    29930.609    3736.4903 
    8300    270.15427    599.17403   -451.69638     11.41879    7.4181754    9.4195242   -0.1734151  -0.15427242   -1.9340658   -7357.1049   -5647.4974    14802.124 
    8400    274.17898    2432.6339   -451.79346    11.260306    7.3136737    9.4651926  -0.17097216  -0.15502038   -1.9434427    17943.685   -2801.5763   -7844.2068 
    8500    317.34535   -9225.3714   -451.74942    11.312438    7.3330544    9.5660127  -0.17142522   -0.1566716   -1.9641436    -8692.232   -12369.372   -6614.5101 
    8600    331.87458   -4845.2902   -451.49942    11.215542    7.3780429    9.5735646  -0.17247692  -0.15679529   -1.9656941    4897.1852   -8466.7862    -10966.27 
    8700    295.93365     13483.49   -451.22797    11.250137    7.3612993    9.4184622   -0.1720855  -0.15425503   -1.9338477    8362.4947    5804.1486    26283.827 
    8800    280.13896   -7773.1566   -451.50898    11.364542    7.3690869     9.482905  -0.17226755  -0.15531047   -1.9470794     -16768.7   -10902.681     4351.912 
    8900    290.02312    2614.7513   -451.94548    11.296785    7.2854782    9.4885537  -0.17031303  -0.15540298   -1.9482393   -11284.199    14187.819     4940.634 
    9000    275.53955   -19372.246   -452.04347    11.316533    7.3444497    9.5090514  -0.17169161  -0.15573869    -1.952448   -25737.988   -14388.117   -17990.633 
    9100    270.78093   -9348.7166   -451.92535    11.337287    7.3421353    9.4685928   -0.1716375  -0.15507607   -1.9441408   -7996.9353   -9812.5215   -10236.693 
    9200     347.4799   -7540.2862   -451.48761    11.357964    7.2934616    9.5270303  -0.17049966  -0.15603315   -1.9561395     -10155.3   -4156.8703   -8308.6884 
    9300    313.63144   -2273.6816   -451.29567    11.328118    7.3145197    9.5060821  -0.17099193  -0.15569006   -1.9518383   -9944.8753    10379.024    -7255.193 
    9400    341.60409    575.93982   -451.30479    11.264501    7.4159102     9.434998  -0.17336214  -0.15452585   -1.9372429    7930.9026   -7546.1309    1343.0477 
    9500    304.96405    8672.7647   -451.75873    11.282737    7.3321032     9.413949  -0.17140298  -0.15418111   -1.9329211    11352.403    8539.3891    6126.5023 
    9600    284.64854    6389.2168   -451.99457    11.297849    7.2784683    9.5156576  -0.17014916  -0.15584689   -1.9538044    8623.8918    11867.331   -1323.5729 
    9700    256.42428    9177.7338   -452.08347      11.2652     7.355758     9.490937  -0.17195596  -0.15544202   -1.9487286    12454.011    5006.2154    10072.975 
    9800    301.99847   -4536.3449   -451.83454    11.285305    7.4214185    9.4248706  -0.17349091  -0.15435999   -1.9351635    6465.9493   -21607.769    1532.7851 
    9900    331.77188    16157.442   -451.41051     11.33374    7.2441707    9.4513909  -0.16934738  -0.15479433   -1.9406088    17558.163    23085.831    7828.3307 
   10000    286.92612   -2135.4399   -451.30177    11.476782     7.260961    9.5985171  -0.16973989  -0.15720396   -1.9708175   -10677.818    18894.449    -14622.95 
   10100    296.84752   -11828.933   -451.84735    11.325366    7.3435733    9.5165725  -0.17167112  -0.15586188   -1.9539922   -9463.8765   -7123.3586   -18899.564 
   10200    262.91147   -7767.3273   -452.27659     11.33462    7.3739707     9.445532  -0.17238172  -0.15469838   -1.9394058   -18392.449    -6550.296    1640.7633 
   10300    269.63835   -9623.4625   -452.19236    11.288747    7.3168526     9.507666  -0.17104647    -0.155716   -1.9521635   -6088.2199   -3485.2384   -19296.929 
   10400    296.30322    1485.9569   -451.71569    11.242003    7.3365839    9.5063028  -0.17150773  -0.15569368   -1.9518836    105.40703    -4124.306    8476.7696 
   10500       308.05   -5486.5668   -451.47838    11.217306     7.387988    9.5167761  -0.17270941  -0.15586521    -1.954034    3679.1345   -9456.3951    -10682.44 
   10600    310.76847   -8329.4189   -451.54255    11.274172    7.3921946    9.4511693  -0.17280774  -0.15479071   -1.9405633   -14666.267   -10818.252    496.26171 
   10700     300.0433    2270.1523   -451.80421    11.205542    7.3366014    9.4600188  -0.17150814  -0.15493564   -1.9423803    159.65613    11461.594   -4810.7934 
   10800    240.59586   -18220.121   -452.33218    11.298454    7.4026677    9.5309963  -0.17305257  -0.15609811   -1.9569538   -3666.1858   -20560.415   -30433.762 
   10900    266.90422   -480.95047   -452.58763    11.356265    7.3061651    9.4950208  -0.17079663   -0.1555089   -1.9495671   -3232.8029    215.63248     1574.319 
   11000    211.84248   -460.10051   -452.53396    11.367561    7.2789533    9.5177203   -0.1701605  -0.15588067   -1.9542279    1372.6686     387.4803   -3140.4505 
   11100    299.34297    3143.4162    -451.7967    11.372537    7.3406923    9.5897842  -0.17160377  -0.15706093   -1.9690245    4118.7228   -10712.695    16024.221 
   11200      334.956    3596.2751   -451.49631    11.296623    7.3368282    9.5427977  -0.17151344  -0.15629139   -1.9593769    10957.266   -2907.7734    2739.3333 
   11300    309.14106    10915.989   -451.50414    11.369257    7.3437074    9.3673097  -0.17167425  -0.15341726   -1.9233448    9510.6776     5125.265    18112.024 
   11400     290.4883    17670.794   -451.89814    11.311322    7.3058695    9.3970177  -0.17078972  -0.15390381   -1.9294446    7524.4481    22629.309    22858.624 
   11500    255.46092    -5638.088   -452.13319    11.101019    7.4630086    9.6074982  -0.17446317  -0.15735105   -1.9726616    22501.764   -19694.927   -19721.102 
   11600    295.44778    13451.479   -452.08303      11.1897    7.3738168    9.6105454  -0.17237812  -0.15740096   -1.9732872    14979.003    17033.539    8341.8937 
   11700    300.89828    2086.2029   -451.33095    11.357503    7.3017486    9.4667053  -0.17069338  -0.15504515   -1.9437532   -9028.6542    14671.302    615.96042 
   11800    372.24437    8483.4841   -451.24172    11.280688    7.3571942    9.3027006  -0.17198954  -0.15235909   -1.9100789   -7970.9962    5659.9203    27761.528 
   11900    308.82352   -13808.691   -451.75231    11.333978    7.4221609    9.5312553  -0.17350827  -0.15610235    -1.957007   -18957.986   -11218.978    -11249.11 
   12000    283.72545   -7430.0994   -451.87691    11.268645    7.2669609     9.668142  -0.16988015  -0.15834427   -1.9851133   -14234.815    13348.282   -21403.765 
   12100     265.8523   -19021.394   -451.94368    11.391164     7.331393    9.5074894  -0.17138638  -0.15571311   -1.9521272   -37508.811   -16824.433   -2730.9374 
   12200     323.9008   -9542.0914   -451.71174    11.400028    7.3782365    9.3674726  -0.17248144  -0.15341993   -1.9233783   -28985.645   -13051.521    13410.891 
   12300    367.47168   -4927.0601   -450.96102    11.275187    7.3058731    9.6235557   -0.1707898  -0.15761404   -1.9759586   -9934.6324    3575.8665   -8422.4146 
   12400    331.66758   -7587.7347   -450.85509    11.265156    7.3348926    9.7162609  -0.17146819  -0.15913236   -1.9949933   -12509.525   -615.09561    -9638.583 
   12500     315.0181    12829.606   -451.50297    11.120229    7.4233043    9.4996613    -0.173535   -0.1555849   -1.9505199    21055.207    9148.9582    8284.6543 
   12600    295.23997    2462.4362   -451.75108    11.262856    7.4384836    9.2926462  -0.17388984  -0.15219442   -1.9080145    9539.0689   -16755.762    14604.001 
   12700    317.82847    759.53211   -451.76261    11.358265    7.2889316    9.4249131  -0.17039376  -0.15436068   -1.9351723    1496.4279    5012.4376   -4230.2691 
   12800    311.53096    5583.0309   -451.65208    11.290416    7.2983449    9.6163541  -0.17061381  -0.15749609   -1.9744799    14296.774    5390.1267   -2937.8076 
   12900    315.15259    1848.1406   -451.48702     11.36295    7.3572901    9.5508022  -0.17199178  -0.15642249   -1.9610205    7187.5237    7575.4669   -9218.5687 
   13000    344.44385    10518.037   -451.31862    11.435319     7.317161    9.3913337  -0.17105368  -0.15381072   -1.9282776    5014.3184    7742.1198    18797.674 
   13100    340.32574    7718.8718    -451.5735    11.315431    7.2623565    9.5358617  -0.16977251  -0.15617779   -1.9579528    23407.576    6775.4017   -7026.3619 
   13200    270.89458   -3408.8161    -452.1187    11.344485    7.3765949    9.5895781  -0.17244307  -0.15705756   -1.9689821   -6159.9844    155.47187   -4221.9359 
   13300    293.10631    3631.4144   -452.13219    11.218859    7.4161803    9.4444528  -0.17336846   -0.1546807   -1.9391842    17820.242   -11670.498    4744.4999 
   13400     310.5629     14886.03   -451.75218    11.314915    7.2946805    9.3842756  -0.17052815  -0.15369512   -1.9268283    9867.2005    15525.062    19265.828 
   13500     315.6663   -16653.112   -451.38745    11.410287    7.3916012    9.5406822  -0.17279387  -0.15625674   -1.9589426   -20303.392   -30237.499    581.55609 
   13600    331.29184    11906.412   -451.41808    11.115918    7.2728631    9.5581775  -0.17001812  -0.15654328   -1.9625348    25426.907    26561.804   -16269.474 
   13700     297.5769   -16592.782   -451.77956    11.348883    7.4218988    9.5128867  -0.17350214  -0.15580151   -1.9532355   -23276.975   -15787.741   -10713.631 
   13800    274.47304    -3930.668    -451.9328    11.260077    7.3782695    9.4594767  -0.17248221  -0.15492676    -1.942269   -3395.6339    5980.9249   -14377.295 
   13900    282.49766   -7253.9983   -452.12597    11.260587    7.3431012    9.4790499  -0.17166008  -0.15524733   -1.9462879   -3455.7034    -6125.135   -12181.157 
   14000    236.96281   -4310.4163    -452.3796    11.368007    7.3073765    9.5528469  -0.17082495  -0.15645597   -1.9614403   -8382.1601    -4309.489   -239.59998 
   14100    305.68078   -497.28821    -452.0635    11.309858    7.3128132    9.5263822  -0.17095204  -0.15602254   -1.9560064    9335.5581   -4760.4913   -6066.9314 
   14200    266.56378   -6127.2935   -451.61833    11.367414    7.3206127      9.49782  -0.17113437  -0.15555475   -1.9501419    2686.6229   -12378.178   -8690.3257 
   14300    304.98986   -7783.9764   -451.42262    11.474279    7.3293474    9.5336212  -0.17133856   -0.1561411   -1.9574928   -8617.2002   -1127.9496   -13606.779 
   14400    289.79794    10939.064   -451.71523    11.282287      7.28488    9.5319461  -0.17029904  -0.15611366   -1.9571488    20220.768    4298.9367    8297.4863 
   14500    308.66578    7109.2962   -452.04738      11.2277    7.3152341    9.5210365  -0.17100863  -0.15593499   -1.9549088    13170.581    13133.733   -4976.4253 
   14600    267.77244    10278.412   -452.52613    11.289422    7.4180797     9.404571  -0.17341286  -0.15402752   -1.9309955    13698.252   -3652.8002    20789.784 
   14700     231.4104    13117.942   -452.93537    11.226876    7.3877277     9.380667  -0.17270332  -0.15363602   -1.9260874     19177.78   -1532.6039    21708.651 
   14800    265.01044    6878.1862   -452.56634    11.304965    7.3129574      9.52762  -0.17095541  -0.15604281   -1.9562606    10703.435    11242.038   -1310.9141 
   14900    254.20182   -6427.0838   -452.21648    11.319109    7.3327151    9.5557458  -0.17141729  -0.15650345   -1.9620355   -3915.6725   -7720.2526   -7645.3263 
   15000    272.54349    420.65802   -451.84889    11.328381    7.3098987     9.490829  -0.17088391  -0.15544025   -1.9487065    8508.8708    1100.5457   -8347.4425 
   15045     323.8023   -13354.499   -451.64565    11.423363    7.3357148    9.4888499  -0.17148741  -0.15540784   -1.9483001   -18911.361   -10409.612   -10742.525 
Loop time of 1528.87 on 1 procs for 10000 steps with 62 atoms

Performance: 0.565 ns/day, 42.469 hours/ns, 6.541 timesteps/s
99.6% CPU use with 1 MPI tasks x 1 OpenMP threads

MPI task timing breakdown:
Section |  min time  |  avg time  |  max time  |%varavg| %total
---------------------------------------------------------------
Pair    | 1528.6     | 1528.6     | 1528.6     |   0.0 | 99.98
Neigh   | 0.050235   | 0.050235   | 0.050235   |   0.0 |  0.00
Comm    | 0.037312   | 0.037312   | 0.037312   |   0.0 |  0.00
Output  | 0.006681   | 0.006681   | 0.006681   |   0.0 |  0.00
Modify  | 0.14137    | 0.14137    | 0.14137    |   0.0 |  0.01
Other   |            | 0.02863    |            |       |  0.00

Nlocal:        62.0000 ave          62 max          62 min
Histogram: 1 0 0 0 0 0 0 0 0 0
Nghost:        734.000 ave         734 max         734 min
Histogram: 1 0 0 0 0 0 0 0 0 0
Neighs:         0.00000 ave           0 max           0 min
Histogram: 1 0 0 0 0 0 0 0 0 0
FullNghs:      4374.00 ave        4374 max        4374 min
Histogram: 1 0 0 0 0 0 0 0 0 0

Total # of neighbors = 4374
Ave neighs/atom = 70.548387
Neighbor list builds = 108
Dangerous builds = 0

write_dump all custom output-tob9_nequip.dump id type x y z fx fy fz
Total wall time: 0:38:48
