ITEM: TIMESTEP
15045
ITEM: NUMBER OF ATOMS
62
ITEM: BOX BOUNDS xy xz yz pp pp pp
-4.8109242055216361e-01 1.1269165403381432e+01 -1.7148741173281687e-01
-1.8904797251046737e+00 7.3935351864385765e+00 -1.5540783605297936e-01
-5.7075675108033685e-02 9.4317742698240910e+00 -1.9483000999836482e+00
ITEM: ATOMS id type x y z fx fy fz
1 1 9.46948 5.38076 1.95006 -0.325975 0.256596 0.227038
2 1 11.1936 0.160661 8.12599 0.71822 1.38258 -0.592548
3 1 11.0219 3.89982 7.93897 0.36419 -0.301821 0.11856
4 1 1.88554 5.75669 5.71204 -0.462691 -0.560715 -0.893187
5 1 1.72176 2.07058 5.59306 0.144148 -0.164582 -0.597339
6 1 3.75975 1.78145 1.97953 -0.242241 0.0642526 0.0903268
7 1 5.57562 0.27328 7.96282 -0.352826 -0.107465 0.0472549
8 1 5.34908 3.99192 7.85778 -0.0618448 -0.138509 0.24567
9 1 7.48603 5.81075 5.49424 0.707992 0.298423 -0.59295
10 1 7.49195 2.14928 5.38501 0.307828 -0.0017677 0.00614272
11 4 10.3793 4.23683 4.74356 1.51612 0.557799 0.967841
12 4 10.4166 0.0679475 4.75488 0.5679 0.926591 0.261745
13 4 11.4256 2.23194 2.61329 0.679849 -1.6767 2.56836
14 4 1.57075 5.88473 1.35597 1.35867 0.3269 0.223251
15 4 2.67132 1.90345 8.77993 -0.620462 -0.0951413 0.273947
16 4 2.64659 -1.27834 8.74985 0.650392 -0.801072 2.47852
17 4 4.69508 0.440715 4.65831 0.860602 1.28187 -0.869274
18 4 4.6401 3.68948 4.69592 -1.73616 -0.594122 -0.295449
19 4 5.58693 5.77617 2.64065 -0.496323 -0.332236 -1.47427
20 4 7.41702 2.19548 1.25731 -0.777044 -0.303884 0.965581
21 4 8.29228 2.32024 8.68071 0.359468 -0.889954 0.668074
22 4 8.44862 -1.85439 8.691 -0.0752012 1.66562 0.881775
23 3 9.03252 3.91897 5.50663 -1.07329 -0.501135 0.26416
24 3 9.03017 0.527507 5.39925 -0.51478 -0.554771 -0.0280169
25 3 9.87056 -1.4846 8.03917 -0.914556 -0.980109 0.208782
26 3 9.73141 1.92418 8.12446 0.199667 0.351698 0.46565
27 3 10.1255 5.85134 4.19813 0.257442 -1.63148 -0.221217
28 3 10.6072 3.54684 3.24804 -0.44899 0.113031 -0.58779
29 3 10.6351 0.87816 3.32333 0.079432 1.17276 -0.963879
30 3 11.0348 2.12994 1.04061 0.0773296 0.318015 -0.662427
31 3 0.0522965 5.8634 0.932255 -0.914308 -0.183752 -0.302866
32 3 0.280224 0.154983 5.73905 0.0994857 0.12358 -0.00323566
33 3 0.29153 3.93671 5.71413 -1.45241 0.724948 -1.30644
34 3 1.3561 2.18317 7.8847 -0.0612653 -0.309722 -0.38701
35 3 1.2178 5.81109 7.84853 -1.12226 -0.687227 -0.576643
36 3 1.5361 2.1739 3.02797 0.392189 0.260886 -0.244449
37 3 1.86294 5.65791 2.99196 0.657906 -0.283651 -0.371254
38 3 2.5813 -0.0985461 0.814216 0.0472018 0.987821 -0.634345
39 3 2.58769 4.77288 0.661106 0.541413 -1.06849 -0.0662581
40 3 2.59025 0.275935 9.30257 0.191862 1.28789 0.412376
41 3 3.25241 0.207674 5.27097 0.140164 0.295706 0.618751
42 3 3.20271 3.81462 5.50919 1.78761 0.390296 -0.586654
43 3 4.13764 2.10508 8.15579 -0.401689 -0.10386 -0.17863
44 3 4.09417 -1.58537 8.15033 0.0886089 -0.0215836 -0.360548
45 3 4.76445 2.09447 4.10445 0.0921486 -0.156469 0.815103
46 3 4.7544 -0.194768 3.08152 1.55076 -1.14238 0.325377
47 3 4.52299 4.5066 3.22269 1.14701 0.964304 -0.0664117
48 3 5.30587 5.7049 0.892845 -0.256213 0.185185 2.09784
49 3 5.85736 2.19381 0.878637 0.533602 -0.403528 -0.221442
50 3 6.0455 0.147174 5.53358 -1.11522 0.257558 -0.173656
51 3 5.98286 4.08535 5.49492 -0.372507 -0.486747 0.432735
52 3 7.07903 2.03045 7.70981 -1.09128 0.157051 -0.549522
53 3 7.15493 -1.58645 7.7679 -0.156232 0.0879782 0.298862
54 3 7.17005 5.68319 3.03793 -1.66112 0.326176 -0.203942
55 3 7.62129 2.01416 2.95288 1.08271 0.096389 -1.13994
56 3 8.44076 0.965963 0.73156 -0.127428 -0.431881 -1.39688
57 3 8.15038 3.60605 0.758756 0.579435 0.149996 -0.387014
58 3 8.30844 3.9093 9.14725 0.254754 0.0325238 0.847721
59 2 10.0909 1.87468 0.999631 -0.555025 -0.404261 -0.362285
60 2 2.76919 5.20568 3.02853 -0.798893 0.355304 0.167299
61 2 4.31182 5.55391 0.848108 0.632586 -0.0522558 -0.167255
62 2 8.54852 1.64239 2.98214 -0.480457 -0.0284554 0.486282
