LAMMPS (2 Aug 2023 - Update 1)
OMP_NUM_THREADS environment is not set. Defaulting to 1 thread. (src/comm.cpp:98)
  using 1 OpenMP thread(s) per MPI task
Loaded 1 plugins from /home/zkm/anaconda3/envs/deepmd/lib/deepmd_lmp
# Compute elastic constant tensor for a crystal at finite temperature
#
# WARNING: This script attempts to measure small differences in
# statistical averages generated by finite temperature MD simulations.
# This creates many more opportunities for errors to occur, compared
# to the zero temperature version provided in examples/ELASTIC.
# Hence, it is always a good idea to start with the zero temperature
# calculation, before attempting to use this script.
#
# Written by Aidan Thompson (Sandia, athomps@sandia.gov)
#
#  This script uses the following three include files.
#
#   init.mod      (must be modified for different crystal structures)
# 	       	  Define units, MD parameters, deformation parameters,
#		  and initial configuration of the atoms and simulation cell.
#
#
#   potential.mod    (must be modified for different pair styles)
# 		     Define pair style and other attributes
#		     not stored in restart file
#
#
#   displace.mod    (displace.mod should not need to be modified)
# 		    Perform positive and negative box displacements
# 		    in direction ${dir} and size ${up}.
# 		    It uses the resultant changes
#		    in stress to compute one
# 		    row of the elastic stiffness tensor
#
#		    Inputs variables:
#		    	   dir = the Voigt deformation component
#		    		    (1,2,3,4,5,6)
#		    Global constants:
#       	    	   up = the deformation magnitude (strain units)
#       		   cfac = conversion from LAMMPS pressure units to
#               	   output units for elastic constants
#
#
#  To run this on a different system, it should only be necessary to
#  modify the files init.mod and potential.mod. In order to calculate
#  the elastic constants correctly, care must be taken to specify
#  the correct units in init.mod (units, cfac and cunits). It is also
#  important to verify that the MD sampling of stress components
#  is generating accurate statistical averages.
#  One indication of this is that the elastic constants are insensitive
#  to the choice of the variable ${up} in init.mod. Another is to
#  check for finite size effects.
#

# include init.mod

# NOTE: This script can be modified for different atomic structures,
# units, etc. See in.elastic for more info.
#

# Define the finite deformation size. Try several values of this
# variable to verify that results do not depend on it.
variable up equal 2.0e-2

# real units, elastic constants in GPa
units		metal
atom_style atomic
variable cfac equal 1.0e-4
variable cunits string GPa

# Define MD parameters
variable nevery equal 10                  # sampling interval
variable nrepeat equal 10                 # number of samples
variable nfreq equal ${nevery}*${nrepeat} # length of one average
variable nfreq equal 10*${nrepeat} 
variable nfreq equal 10*10 
variable nthermo equal ${nfreq}           # interval for thermo output
variable nthermo equal 100           
variable nequil equal 10*${nthermo}       # length of equilibration run
variable nequil equal 10*100       
variable nrun equal 3*${nthermo}          # length of equilibrated run
variable nrun equal 3*100          
variable temp equal 300                   # temperature of initial sample
variable timestep equal 0.001             # timestep
variable adiabatic equal 2                # adiabatic (1) or isothermal (2)
variable tdamp equal 0.01                 # time constant for thermostat
variable seed equal 123457                # seed for thermostat

# generate the box and atom positions using a diamond lattice
variable a equal 5.431

boundary	p p p


box tilt large

The 'box' command has been removed and will be ignored

read_data tob11_ref_deepmd.data
Reading data file ...
  triclinic box = (0 0 0) to (6.8037 6.184815 22.405446) with tilt (2.6646871 0.29402869 -0.26981789)
  1 by 1 by 1 MPI processor grid
  reading atoms ...
  88 atoms
  read_data CPU = 0.001 seconds

pair_style	deepmd tob11_deepmd_compress.pb
Summary of lammps deepmd module ...
  >>> Info of deepmd-kit:
  installed to:       /home/zkm/anaconda3/envs/deepmd
  source:             v2.2.7
  source branch:       HEAD
  source commit:      839f4fe7
  source commit at:   2023-10-27 21:10:24 +0800
  surpport model ver.:1.1 
  build variant:      cuda
  build with tf inc:  /home/zkm/anaconda3/envs/deepmd/include;/home/zkm/anaconda3/envs/deepmd/include
  build with tf lib:  /home/zkm/anaconda3/envs/deepmd/lib/libtensorflow_cc.so
  set tf intra_op_parallelism_threads: 0
  set tf inter_op_parallelism_threads: 0
  >>> Info of lammps module:
  use deepmd-kit at:  /home/zkm/anaconda3/envs/deepmdpair_coeff	* * Ca H O Si
mass            1 40.079800
mass            4 28.08500
mass            3 15.9994
mass            2 1.00794


change_box all triclinic
Changing box ...
  triclinic box = (0 0 0) to (6.8037 6.184815 22.405446) with tilt (2.6646871 0.29402869 -0.26981789)

velocity	all create ${temp} 87287
velocity	all create 300 87287

thermo 100
min_style cg
minimize 1.0e-15 1.0e-15 100000 100000 #设置能量最小化

CITE-CITE-CITE-CITE-CITE-CITE-CITE-CITE-CITE-CITE-CITE-CITE-CITE

Your simulation uses code contributions which should be cited:

- USER-DEEPMD package:

@article{Wang_ComputPhysCommun_2018_v228_p178,
  author = {Wang, Han and Zhang, Linfeng and Han, Jiequn and E, Weinan},
  doi = {10.1016/j.cpc.2018.03.016},
  url = {https://doi.org/10.1016/j.cpc.2018.03.016},
  year = 2018,
  month = {jul},
  publisher = {Elsevier {BV}},
  volume = 228,
  journal = {Comput. Phys. Commun.},
  title = {{DeePMD-kit: A deep learning package for many-body potential energy representation and molecular dynamics}},
  pages = {178--184}
}
@misc{Zeng_JChemPhys_2023_v159_p054801,
  title  = {{DeePMD-kit v2: A software package for deep potential models}},
  author =   {Jinzhe Zeng and Duo Zhang and Denghui Lu and Pinghui Mo and Zeyu Li
         and Yixiao Chen and Mari{\'a}n Rynik and Li'ang Huang and Ziyao Li and 
         Shaochen Shi and Yingze Wang and Haotian Ye and Ping Tuo and Jiabin
         Yang and Ye Ding and Yifan Li and Davide Tisi and Qiyu Zeng and Han 
         Bao and Yu Xia and Jiameng Huang and Koki Muraoka and Yibo Wang and 
         Junhan Chang and Fengbo Yuan and Sigbj{\o}rn L{\o}land Bore and Chun
         Cai and Yinnian Lin and Bo Wang and Jiayan Xu and Jia-Xin Zhu and 
         Chenxing Luo and Yuzhi Zhang and Rhys E A Goodall and Wenshuo Liang
         and Anurag Kumar Singh and Sikai Yao and Jingchao Zhang and Renata
         Wentzcovitch and Jiequn Han and Jie Liu and Weile Jia and Darrin M
         York and Weinan E and Roberto Car and Linfeng Zhang and Han Wang},
  journal =  {J. Chem. Phys.},
  volume =   159,
  issue =    5,  
  year =    2023,
  pages  =   054801,
  doi =      {10.1063/5.0155600},
}

CITE-CITE-CITE-CITE-CITE-CITE-CITE-CITE-CITE-CITE-CITE-CITE-CITE

Generated 0 of 6 mixed pair_coeff terms from geometric mixing rule
Neighbor list info ...
  update: every = 1 steps, delay = 0 steps, check = yes
  max neighbors/atom: 2000, page size: 100000
  master list distance cutoff = 6
  ghost atom cutoff = 6
  binsize = 3, bins = 4 3 8
  1 neighbor lists, perpetual/occasional/extra = 1 0 0
  (1) pair deepmd, perpetual
      attributes: full, newton on
      pair build: full/bin/atomonly
      stencil: full/bin/3d
      bin: standard
Per MPI rank memory allocation (min/avg/max) = 4.213 | 4.213 | 4.213 Mbytes
   Step          Temp          E_pair         E_mol          TotEng         Press     
         0   300           -571.5139       0             -568.14021      31362.457    
       100   300           -578.12471      0             -574.75102      30234.051    
       200   300           -578.4263       0             -575.05261      28431.857    
       300   300           -578.72287      0             -575.34918      30056.888    
       400   300           -578.72822      0             -575.35453      29901.366    
       500   300           -578.72822      0             -575.35453      29904.867    
       524   300           -578.72822      0             -575.35453      29904.855    
Loop time of 36.3379 on 1 procs for 524 steps with 88 atoms

101.7% CPU use with 1 MPI tasks x 1 OpenMP threads

Minimization stats:
  Stopping criterion = energy tolerance
  Energy initial, next-to-last, final = 
     -571.513896147483  -578.728221009565  -578.728221009566
  Force two-norm initial, final = 16.3926 7.276553e-06
  Force max component initial, final = 3.8216525 2.0922301e-06
  Final line search alpha, max atom move = 1 2.0922301e-06
  Iterations, force evaluations = 524 1048

MPI task timing breakdown:
Section |  min time  |  avg time  |  max time  |%varavg| %total
---------------------------------------------------------------
Pair    | 36.309     | 36.309     | 36.309     |   0.0 | 99.92
Neigh   | 0.0023641  | 0.0023641  | 0.0023641  |   0.0 |  0.01
Comm    | 0.013216   | 0.013216   | 0.013216   |   0.0 |  0.04
Output  | 0.00030561 | 0.00030561 | 0.00030561 |   0.0 |  0.00
Modify  | 0          | 0          | 0          |   0.0 |  0.00
Other   |            | 0.01299    |            |       |  0.04

Nlocal:             88 ave          88 max          88 min
Histogram: 1 0 0 0 0 0 0 0 0 0
Nghost:           1046 ave        1046 max        1046 min
Histogram: 1 0 0 0 0 0 0 0 0 0
Neighs:              0 ave           0 max           0 min
Histogram: 1 0 0 0 0 0 0 0 0 0
FullNghs:         7324 ave        7324 max        7324 min
Histogram: 1 0 0 0 0 0 0 0 0 0

Total # of neighbors = 7324
Ave neighs/atom = 83.227273
Neighbor list builds = 3
Dangerous builds = 0

thermo_style  custom step temp press etotal lx ly lz xy yz xz pxx pyy pzz

#fix 456 all nve
#fix 567 all langevin 300.0 300.0 0.1 12345

#run 5000

#unfix 456
#unfix 567
fix 123 all npt temp 300 300 1 tri 1.0 1.0 1
run 10000
Generated 0 of 6 mixed pair_coeff terms from geometric mixing rule
Per MPI rank memory allocation (min/avg/max) = 3.104 | 3.104 | 3.104 Mbytes
   Step          Temp          Press          TotEng           Lx             Ly             Lz             Xy             Yz             Xz            Pxx            Pyy            Pzz      
       524   300            29904.855     -575.35453      6.8037         6.184815       22.405446      2.6646871     -0.26981789     0.29402869     16739.66       28581.876      44393.03     
       600   154.30531     -3282.9487     -575.68799      6.8607237      6.2663992      22.941436      2.6915792     -0.17912764     0.23329321     1951.3963     -13169.853      1369.6106    
       700   142.99577     -14477.571     -575.54805      6.8370903      6.2383539      23.512341      2.7541962      0.077198446    0.01263596    -2405.9074     -6416.7772     -34610.027    
       800   177.23988      7178.2013     -575.4379       6.7786467      6.2032215      23.022197      2.8274193      0.22184977    -0.06602799     7913.2878      7920.4532      5700.863     
       900   175.91298     -5795.6274     -575.35637      6.8441797      6.2971076      22.897561      2.8544994      0.24327016    -0.056768574   -8249.8001     -12380.117      3243.0344    
      1000   166.56515     -1056.4246     -575.31868      6.8172589      6.2487281      23.091994      2.789966       0.24410263    -0.079069616   -2130.8428      1198.4243     -2236.8552    
      1100   171.01406     -9781.6806     -575.24631      6.8372517      6.2335536      23.397597      2.7268999      0.12874939    -0.010055764   -4934.3218     -9115.824      -15294.896    
      1200   183.42531      13840.129     -575.19757      6.8007463      6.1609034      23.087026      2.6977689     -0.074458884   -0.10049373     10851.98       13801.762      16866.646    
      1300   170.2845      -2498.6417     -575.17075      6.8590251      6.2454214      23.054331      2.7319738     -0.21340652    -0.16405604    -2839.5687     -2588.7252     -2067.631     
      1400   186.64364     -4895.6631     -575.09939      6.8641147      6.2974922      22.989099      2.787904      -0.23604127    -0.07036159    -5366.4689     -9705.7775      385.2572     
      1500   185.34648      5564.1114     -575.04015      6.7959204      6.2107146      23.141777      2.7880986     -0.081077438   -0.098785461    8884.0977      11777.947     -3969.7108    
      1600   176.18047     -8953.5638     -574.96779      6.8310831      6.246971       23.25527       2.7838661      0.27575522    -0.1034038     -1966.0089     -10863.274     -14031.409    
      1700   193.34413      6666.2725     -574.87474      6.8433917      6.227484       22.822436      2.7748125      0.54988966    -0.045451743    4323.2266      6125.7028      9549.8881    
      1800   189.85251     -11572.38      -574.81966      6.8829109      6.2587676      23.191373      2.7584325      0.47350261     0.014443768   -10201.881     -6668.8732     -17846.386    
      1900   193.14788      10433.515     -574.7279       6.8080684      6.216139       23.179858      2.7664726      0.24013041     0.17618044     15402.232      13002.121      2896.1903    
      2000   197.79597     -10622.589     -574.65553      6.8622797      6.2882202      23.109591      2.804158      -0.021635222    0.27221193    -7955.4709     -16208.61      -7703.6875    
      2100   202.21508      15603.604     -574.59575      6.8213864      6.2315235      22.881726      2.8114342     -0.14556695     0.10131644     8841.7986      20544.14       17424.875    
      2200   217.11097     -7284.2243     -574.55424      6.8395893      6.2730674      23.199556      2.7949537     -0.014229621   -0.086562148   -2614.7178     -13161.367     -6076.5883    
      2300   207.7532      -7194.5088     -574.45476      6.830958       6.2533748      23.1907        2.7528066      0.087285857   -0.30458714    -18183.598     -7093.9056      3693.9775    
      2400   202.76212     -2161.5741     -574.25611      6.7678727      6.2491413      23.051798      2.7263113      0.078720139   -0.36955242    -7246.8906     -6348.3133      7110.4817    
      2500   231.4372      -7404.7793     -574.15987      6.8233877      6.3012236      23.088972      2.7850435      0.081642306   -0.28224072    -7765.873      -13763.519     -684.94534    
      2600   247.00977      7525.8633     -574.07495      6.8663544      6.2442217      23.078259      2.8247691      0.064915882   -0.22864828     7361.0318      15928.793     -712.23468    
      2700   203.79772      6221.8193     -573.9889       6.8281551      6.2162809      23.185102      2.8107868      0.017195909    0.052448051    7102.2325      6836.061       4727.1644    
      2800   254.66268      9488.9036     -573.8647       6.7321293      6.277543       23.193344      2.7544259      0.079650612    0.25416104     19179.47       2795.4351      6491.8055    
      2900   227.44017     -13997.989     -573.74957      6.8102791      6.3626362      23.025217      2.7555533      0.22726285     0.26822785    -11041.227     -16720.613     -14232.125    
      3000   226.36569      5335.0791     -573.67873      6.8775298      6.2653461      22.667164      2.8138828      0.44057422     0.11456385     3963.7095     -2833.7546      14875.282    
      3100   234.66739     -5483.2561     -573.58711      6.921549       6.1689291      23.224208      2.8440194      0.60831237    -0.12625914    -8079.6         3623.437      -11993.605    
      3200   244.227       -442.49529     -573.40131      6.8711759      6.1513974      23.501602      2.8193303      0.46198392    -0.42072279     5766.1195      5686.6679     -12780.273    
      3300   267.14653      7298.6977     -573.4128       6.8165448      6.2579775      23.001503      2.7741931      0.079700482   -0.4336501      6786.4447      7487.6517      7621.9968    
      3400   283.58655     -4274.4962     -573.18257      6.8060198      6.3655658      22.777768      2.7534536     -0.33559527    -0.44860089    -4327.9197     -14655.249      6159.6797    
      3500   284.75634     -4038.9265     -573.16389      6.8056055      6.3087392      23.082306      2.8023406     -0.50491436    -0.42888665    -603.18463     -13974.926      2461.3313    
      3600   286.4339       1653.7074     -573.01801      6.8730009      6.2147888      23.297956      2.8783722     -0.32170814    -0.47607619     2295.9251      4233.7056     -1568.5084    
      3700   288.71122      1384.9009     -572.95202      6.9293788      6.1992579      23.127078      2.8742515      0.15652606    -0.42997376    -4865.0134      5297.5709      3722.1453    
      3800   284.66203      839.91918     -572.84092      6.8537407      6.2466228      22.980386      2.7976109      0.52820831    -0.25482117    -3843.6084      4737.834       1625.5319    
      3900   260.5795      -9141.0407     -572.6922       6.783591       6.3216512      23.048912      2.7331723      0.55595255    -0.051894854   -910.52103     -23462.193     -3050.4079    
      4000   307.86238      11946.478     -572.63634      6.7949182      6.2238906      23.081462      2.7506383      0.38606116     0.089136687    23521.534      9343.1765      2974.7224    
      4100   272.59422     -923.88142     -572.55014      6.9436899      6.2052113      23.13697       2.8472846      0.26634344     0.085300376   -8195.6103      8758.9846     -3335.0186    
      4200   290.65004     -6973.5294     -572.46461      6.9446274      6.2505235      23.076528      2.8817737      0.11615134     0.0056726005  -8887.549      -1512.9582     -10520.081    
      4300   268.13408     -2176.8529     -572.44597      6.7431693      6.320276       23.042434      2.8108941     -0.076829665   -0.15558358     2334.1399     -3748.8014     -5115.8973    
      4400   315.32268      2262.9444     -572.28269      6.6721721      6.3241191      23.261095      2.7552126     -0.23837011    -0.26139406     16298.055     -2475.3004     -7033.9218    
      4500   291.04611      2147.0254     -572.33941      6.8871523      6.254263       23.201628      2.8094826     -0.092265639   -0.49054317     3462.5225      4972.3217     -1993.768     
      4600   312.47406      15534.695     -572.07907      6.9927275      6.1869106      22.840041      2.8539307      0.011335665   -0.70940482     1970.9178      11287.683      33345.485    
      4700   292.42693     -15946.898     -572.14781      6.9064877      6.2097648      23.123291      2.8099525      0.049524209   -0.54932081    -9434.3429     -12001.331     -26405.021    
      4800   291.08029      11590.512     -571.99995      6.7622005      6.2133153      23.106346      2.7121131     -0.025129497   -0.17480581     18612.83       12936.651      3222.055     
      4900   315.22226     -8562.3122     -571.98315      6.8545804      6.3269599      23.056106      2.7366786      0.064556238    0.063575197   -3547.8311     -20181.61      -1957.4952    
      5000   294.51642      17372.568     -571.92941      6.9083337      6.2486846      22.712887      2.7976107      0.37767845     0.25528661     5709.9775      15554.742      30852.983    
      5100   311.18772     -7880.1177     -571.8835       6.9415491      6.2215039      23.124238      2.8087134      0.67284467     0.21927977    -10599.794     -4110.1687     -8930.3906    
      5200   278.81638      13129.12      -571.81002      6.8129376      6.2332823      23.309826      2.7868255      0.67172349     0.20367185     29846.166      12100.683     -2559.4882    
      5300   324.74496     -480.29618     -571.75318      6.7741253      6.3091816      23.042506      2.809877       0.53880128     0.23807263     12258.971     -12558.886     -1140.9731    
      5400   306.14576      3524.0414     -571.7169       6.8822104      6.3156131      22.778588      2.8536651      0.23084847     0.18396341     4544.7587     -12613.878      18641.244    
      5500   313.36412      2766.3044     -571.7127       6.9472044      6.2602762      23.001762      2.8621716     -0.039887793    0.048909216   -403.25336      3015.3         5686.8665    
      5600   336.35787     -8794.0095     -571.69604      6.8695813      6.1871869      23.235749      2.7754438     -0.25528359    -0.23181859    -14575.93      -6121.591      -5684.5073    
      5700   353.44008      5725.0811     -571.69832      6.793778       6.2167333      23.149499      2.6995795     -0.17382865    -0.484142       4253.5073      14015.806     -1094.07      
      5800   310.96258     -14046.576     -571.63513      6.8637692      6.3465487      23.037563      2.7164816      0.047937727   -0.78353146    -9846.4559     -14598.358     -17694.913    
      5900   314.3732       18261.872     -571.58168      6.8622163      6.2676793      22.612004      2.7831775      0.14780551    -0.85972505     17588.91       14501.066      22695.641    
      6000   334.37534     -7561.2847     -571.65566      6.9167279      6.212825       23.091947      2.8286975      0.10834996    -0.47381891    -18489.304     -82.309345     -4112.2409    
      6100   311.25826     -11605.094     -571.63057      6.891019       6.1892368      23.393913      2.807883      -0.10414339    -0.12344869    -16205.325      3040.5415     -21650.5      
      6200   326.21614      4711.3621     -571.62226      6.827237       6.2440157      23.032512      2.7495949     -0.10232585     0.18898462     3400.5479      2937.7883      7795.75      
      6300   322.43017     -3390.2052     -571.63822      6.8727726      6.3073609      22.912198      2.7312725      0.13437139     0.050282124    5498.7862     -11602.264     -4067.1375    
      6400   308.28169      4708.819      -571.64396      6.8552101      6.2213032      22.971929      2.7415924      0.32055964    -0.088913896    8074.9678      8455.3963     -2403.907     
      6500   335.54857      12307.572     -571.66437      6.8432475      6.199427       23.113928      2.7643949      0.40077289    -0.1785703      30076.001      727.2947       6119.4213    
      6600   349.77209     -6245.5526     -571.71319      6.9138546      6.2379952      23.254864      2.8183767      0.23975736    -0.25478571    -751.54356     -9563.1131     -8422.0012    
      6700   346.79402     -1912.4355     -571.81227      6.9236378      6.2664861      22.847122      2.8250241      0.13612982    -0.17417248    -10534.161      5602.0561     -805.20202    
      6800   317.7639       22496.034     -571.79745      6.8051127      6.2438471      22.639235      2.7687345      0.068867162   -0.16836399     27581.409      17622.607      22284.085    
      6900   330.07821     -9130.7795     -571.87463      6.8057188      6.2632051      23.337169      2.7193084      0.064292083   -0.22415293     2295.5185     -6682.3839     -23005.473    
      7000   304.21537      3205.9023     -571.95757      6.8488422      6.2036627      23.190905      2.7334219      0.12563047    -0.19380418     12264.888      8036.7419     -10683.923    
      7100   318.6508       799.89707     -571.98334      6.9478865      6.2308244      22.710486      2.8010146      0.092337937    0.0097853413   642.204        1468.6189      288.86834    
      7200   285.48499     -9672.66       -572.05382      6.9638456      6.2583889      22.746606      2.8188105      0.11306928    -0.041161067   -19591.135     -11422.391      1995.5462    
      7300   286.58237      2504.1304     -572.10465      6.8269025      6.2096413      23.137684      2.7635212      0.16636361    -0.24100789     7658.0885     -2793.2549      2647.5575    
      7400   293.57123     -7978.7189     -572.19362      6.8301868      6.2687952      23.200875      2.7688716      0.32550836    -0.4949628     -6281.0657     -5833.0055     -11822.085    
      7500   270.36394      9491.7719     -572.19509      6.861524       6.2729096      22.785694      2.8119579      0.28333026    -0.69266581     5747.7646     -6119.5123      28847.064    
      7600   304.83783     -7083.0047     -572.25245      6.9208311      6.2347326      23.008938      2.8143636      0.11915742    -0.65357317    -7309.7816     -9396.7657     -4542.4669    
      7700   353.17094     -201.63476     -572.33418      6.9251282      6.1746312      22.756982      2.7866036      0.0025610118  -0.56505084    -4130.5423      4983.1644     -1457.5264    
      7800   296.05311      4277.1098     -572.50595      6.8820572      6.2229466      22.864706      2.7350564      0.17560351    -0.39799232    -7410.3335      11097.825      9143.8381    
      7900   265.25557      5674.9843     -572.46399      6.8238469      6.2944984      23.20081       2.6952604      0.49350633    -0.13104831     7208.9382      1488.2745      8327.7402    
      8000   323.92281      1652.6965     -572.55846      6.8414772      6.2466192      23.04807       2.7154892      0.52778614     0.14789551     1062.8997     -4024.9076      7920.0974    
      8100   304.43137     -3035.2806     -572.57585      6.8863449      6.1978888      22.870854      2.7938949      0.33757623     0.39391821    -4826.9096      464.15844     -4743.0907    
      8200   285.60082      7001.0915     -572.64584      6.8735466      6.230805       22.922164      2.8447312      0.2846803      0.27671289     347.25098      7114.236       13541.787    
      8300   310.80435     -8654.7404     -572.70743      6.9083649      6.2946437      23.14131       2.8298655      0.35733923    -0.16786728    -7077.7015     -7945.4642     -10941.055    
      8400   280.14004      6872.3916     -572.73789      6.847436       6.2225212      22.924893      2.7466705      0.40110965    -0.59026312     7041.6089      12441.034      1134.5318    
      8500   286.22598      5353.461      -572.82608      6.8592996      6.208832       22.908313      2.7017516      0.1024985     -0.74195527    -3500.314       8041.129       11519.568    
      8600   275.93818      916.83353     -572.78356      6.8684431      6.226644       23.060152      2.6823232     -0.35756301    -0.52780139    -1233.2465      3497.6458      486.10132    
      8700   266.77356      8988.1904     -572.7882       6.837587       6.2368275      22.907484      2.7040329     -0.48775635    -0.21706708     13967.286      2514.7377      10482.547    
      8800   289.5767      -7114.9024     -572.84818      6.8651565      6.3075718      23.108408      2.7467344     -0.024994007   -0.16900007    -5766.1194      184.54168     -15763.129    
      8900   264.3548       13412.289     -572.83474      6.8056945      6.2615012      22.872668      2.8270553      0.53853791    -0.11097856     16931.069      3462.3029      19843.496    
      9000   253.15256     -9983.4266     -572.78399      6.8906831      6.2573552      23.160981      2.8950549      0.87908658    -0.095061275   -6544.0662     -5744.7718     -17661.442    
      9100   302.83747      6160.2673     -572.85368      6.9241854      6.2297025      22.934315      2.8745603      0.71313606    -0.13894965     5177.4636     -4831.8547      18135.193    
      9200   297.42375      3286.495      -572.88106      6.8968591      6.2321585      22.956939      2.7592799      0.21932296    -0.17917911    -2402.4864      10534.317      1727.6544    
      9300   282.31887     -1264.0599     -572.80158      6.844605       6.2375302      22.876744      2.657725      -0.17018721    -0.37151447    -7377.4678      5620.7985     -2035.5105    
      9400   266.1794      -764.44606     -572.76687      6.824037       6.2777385      22.853954      2.6520327     -0.3043207     -0.53942151     716.53591     -7113.7996      4103.9256    
      9500   337.06815     -887.71032     -572.83153      6.8751098      6.2858519      22.798664      2.7682396     -0.18264623    -0.67549206     1315.9593     -8338.1726      4359.0823    
      9600   232.40276     -1172.9379     -572.78072      6.9265597      6.2186222      22.985374      2.9022835      0.1839201     -0.64216113    -11180.111      11965.907     -4304.6094    
      9700   286.60739     -3347.3585     -572.75357      6.8899973      6.2430032      23.083351      2.8948844      0.62318655    -0.42548716    -1487.1552      6389.7193     -14944.64     
      9800   298.79309      7800.9014     -572.73049      6.7859604      6.289582       22.890628      2.7588485      0.86554799    -0.079269453    13222.683     -7016.638       17196.659    
      9900   293.9686      -5602.1791     -572.70396      6.821448       6.2830395      22.981826      2.6650109      0.71343764     0.31518027    -4957.3608     -3788.4639     -8060.7126    
     10000   274.51016      531.2746      -572.67528      6.9128564      6.2360908      22.967446      2.7027723      0.29523965     0.57883244     364.80428      5005.4467     -3776.4272    
     10100   276.21143     -10948.125     -572.66408      6.9665652      6.18534        23.004803      2.7828224     -0.11337663     0.48763138    -8423.1246     -8914.4816     -15506.77     
     10200   278.91407      9185.1542     -572.80363      6.8942346      6.1807628      22.887962      2.8175991      0.0066137848  -0.24488211     7468.998       10923.631      9162.8338    
     10300   307.71418      437.8746      -572.62569      6.8116503      6.3203687      22.977765      2.7977406      0.32113398    -1.0236019      7792.1202     -3400.3625     -3078.1339    
     10400   271.8707      -8860.3796     -572.50335      6.8153049      6.342324       22.908316      2.7976129      0.44385666    -1.3006696      3106.8944     -12424.713     -17263.32     
     10500   290.86311     -1102.9933     -572.56217      6.8927162      6.2775661      22.806196      2.8321649      0.30788937    -1.0151447     -1538.0405      2628.4471     -4399.3867    
     10524   264.91632      3174.2864     -572.55655      6.9131791      6.2764102      22.880574      2.8369773      0.26423941    -0.88657934     1490.0963     -4323.3404      12356.103    
Loop time of 285.821 on 1 procs for 10000 steps with 88 atoms

Performance: 3.023 ns/day, 7.939 hours/ns, 34.987 timesteps/s, 3.079 katom-step/s
102.5% CPU use with 1 MPI tasks x 1 OpenMP threads

MPI task timing breakdown:
Section |  min time  |  avg time  |  max time  |%varavg| %total
---------------------------------------------------------------
Pair    | 285.39     | 285.39     | 285.39     |   0.0 | 99.85
Neigh   | 0.1172     | 0.1172     | 0.1172     |   0.0 |  0.04
Comm    | 0.094591   | 0.094591   | 0.094591   |   0.0 |  0.03
Output  | 0.0053385  | 0.0053385  | 0.0053385  |   0.0 |  0.00
Modify  | 0.17929    | 0.17929    | 0.17929    |   0.0 |  0.06
Other   |            | 0.03802    |            |       |  0.01

Nlocal:             88 ave          88 max          88 min
Histogram: 1 0 0 0 0 0 0 0 0 0
Nghost:           1025 ave        1025 max        1025 min
Histogram: 1 0 0 0 0 0 0 0 0 0
Neighs:              0 ave           0 max           0 min
Histogram: 1 0 0 0 0 0 0 0 0 0
FullNghs:         6942 ave        6942 max        6942 min
Histogram: 1 0 0 0 0 0 0 0 0 0

Total # of neighbors = 6942
Ave neighs/atom = 78.886364
Neighbor list builds = 214
Dangerous builds = 0

unfix 123

# Compute initial state

variable thermostat equal 0
include potential.mod
# NOTE: This script can be modified for different pair styles
# See in.elastic for more info.

# we must undefine any fix ave/* fix before using reset_timestep
if "$(is_defined(fix,avp))" then "unfix avp"
reset_timestep 0


# Choose potential
# pair_style	sw
# pair_coeff * * Si.sw Si

pair_style	deepmd tob11_deepmd_compress.pb
pair_coeff	* * Ca H O Si

atom_modify sort 0 0.0
#kspace_style	ewald 1.0e-6# Setup neighbor style

#neighbor 2.0 bin
neigh_modify once no every 1 delay 0 check yes



# Setup output

fix avp all ave/time  ${nevery} ${nrepeat} ${nfreq} c_thermo_press mode vector
fix avp all ave/time  10 ${nrepeat} ${nfreq} c_thermo_press mode vector
fix avp all ave/time  10 10 ${nfreq} c_thermo_press mode vector
fix avp all ave/time  10 10 100 c_thermo_press mode vector

#min_style cg
#minimize 1.0e-15 1.0e-15 10000 10000 #设置能量最小化

thermo		${nthermo}
thermo		100
thermo_style custom step temp pe press f_avp[1] f_avp[2] f_avp[3] f_avp[4] f_avp[5] f_avp[6]
thermo_modify norm no

# Setup MD

timestep ${timestep}
timestep 0.001
fix 4 all nve
if "${thermostat} == 1" then    "fix 5 all langevin ${temp} ${temp} ${tdamp} ${seed}"


run ${nequil}
run 1000
Generated 0 of 6 mixed pair_coeff terms from geometric mixing rule
Per MPI rank memory allocation (min/avg/max) = 3.088 | 3.088 | 3.088 Mbytes
   Step          Temp          PotEng         Press         f_avp[1]       f_avp[2]       f_avp[3]       f_avp[4]       f_avp[5]       f_avp[6]   
         0   264.91632     -575.5357       3174.2864      0              0              0              0              0              0            
       100   309.67869     -576.05134     -4614.8146     -5173.1688     -8250.7294      2878.7039      1474.2008     -895.19469      2202.4288    
       200   323.59125     -576.20477      5101.4089      3841.6493     -2372.992       9469.6588     -4417.7758      3361.9573     -1360.7439    
       300   265.12223     -575.53416     -7991.4773     -6695.1222     -2009.4614      11281.601     -2342.2917      4648.8361     -2814.4414    
       400   286.33055     -575.78024     -10901.894     -12009.132     -9756.744      -4234.6848     -1667.1137      5927.3579     -3079.3768    
       500   295.37874     -575.87467     -10245.131     -3077.3157     -4381.4056     -8418.4846     -2200.6783      2404.6433     -3710.8504    
       600   268.38194     -575.57298      8146.5307      912.95322     -1408.4453      6862.6749     -738.30661      1724.0837     -4704.7782    
       700   316.57776     -576.12124      4611.8501     -341.317       -1039.6544      4413.0015     -1944.4343      6299.0836     -4518.1259    
       800   310.6831      -576.05913     -9401.7106     -8495.2423     -9506.0623     -5202.1639     -1416.8969      4953.7254     -5098.9034    
       900   289.48486     -575.82399      1613.9451     -5820.7857     -3535.1089      1959.4203      1316.1546      7404.8526      929.07139    
      1000   258.70606     -575.46761     -7086.302      -6140.7366     -2561.8289     -2355.9886     -2497.6335      1347.398      -2431.4184    
Loop time of 34.714 on 1 procs for 1000 steps with 88 atoms

Performance: 2.489 ns/day, 9.643 hours/ns, 28.807 timesteps/s, 2.535 katom-step/s
101.5% CPU use with 1 MPI tasks x 1 OpenMP threads

MPI task timing breakdown:
Section |  min time  |  avg time  |  max time  |%varavg| %total
---------------------------------------------------------------
Pair    | 34.693     | 34.693     | 34.693     |   0.0 | 99.94
Neigh   | 0.0049216  | 0.0049216  | 0.0049216  |   0.0 |  0.01
Comm    | 0.0079463  | 0.0079463  | 0.0079463  |   0.0 |  0.02
Output  | 0.00046069 | 0.00046069 | 0.00046069 |   0.0 |  0.00
Modify  | 0.0032028  | 0.0032028  | 0.0032028  |   0.0 |  0.01
Other   |            | 0.004054   |            |       |  0.01

Nlocal:             88 ave          88 max          88 min
Histogram: 1 0 0 0 0 0 0 0 0 0
Nghost:            992 ave         992 max         992 min
Histogram: 1 0 0 0 0 0 0 0 0 0
Neighs:              0 ave           0 max           0 min
Histogram: 1 0 0 0 0 0 0 0 0 0
FullNghs:         6886 ave        6886 max        6886 min
Histogram: 1 0 0 0 0 0 0 0 0 0

Total # of neighbors = 6886
Ave neighs/atom = 78.25
Neighbor list builds = 12
Dangerous builds = 0

if "${adiabatic} == 1" then "variable thermostat equal 0" else "variable thermostat equal 1"
variable thermostat equal 1

print ${thermostat}
print 1
1

include potential.mod
# NOTE: This script can be modified for different pair styles
# See in.elastic for more info.

# we must undefine any fix ave/* fix before using reset_timestep
if "$(is_defined(fix,avp))" then "unfix avp"
unfix avp
reset_timestep 0


# Choose potential
# pair_style	sw
# pair_coeff * * Si.sw Si

pair_style	deepmd tob11_deepmd_compress.pb
pair_coeff	* * Ca H O Si

atom_modify sort 0 0.0
#kspace_style	ewald 1.0e-6# Setup neighbor style

#neighbor 2.0 bin
neigh_modify once no every 1 delay 0 check yes



# Setup output

fix avp all ave/time  ${nevery} ${nrepeat} ${nfreq} c_thermo_press mode vector
fix avp all ave/time  10 ${nrepeat} ${nfreq} c_thermo_press mode vector
fix avp all ave/time  10 10 ${nfreq} c_thermo_press mode vector
fix avp all ave/time  10 10 100 c_thermo_press mode vector

#min_style cg
#minimize 1.0e-15 1.0e-15 10000 10000 #设置能量最小化

thermo		${nthermo}
thermo		100
thermo_style custom step temp pe press f_avp[1] f_avp[2] f_avp[3] f_avp[4] f_avp[5] f_avp[6]
WARNING: New thermo_style command, previous thermo_modify settings will be lost (src/output.cpp:903)
thermo_modify norm no

# Setup MD

timestep ${timestep}
timestep 0.001
fix 4 all nve
if "${thermostat} == 1" then    "fix 5 all langevin ${temp} ${temp} ${tdamp} ${seed}"
fix 5 all langevin ${temp} ${temp} ${tdamp} ${seed}
fix 5 all langevin 300 ${temp} ${tdamp} ${seed}
fix 5 all langevin 300 300 ${tdamp} ${seed}
fix 5 all langevin 300 300 0.01 ${seed}
fix 5 all langevin 300 300 0.01 123457


run ${nrun}
run 300
Generated 0 of 6 mixed pair_coeff terms from geometric mixing rule
Per MPI rank memory allocation (min/avg/max) = 3.088 | 3.088 | 3.088 Mbytes
   Step          Temp          PotEng         Press         f_avp[1]       f_avp[2]       f_avp[3]       f_avp[4]       f_avp[5]       f_avp[6]   
         0   258.70606     -575.46761     -7086.302       0              0              0              0              0              0            
       100   341.54553     -575.52306     -9083.2335     -11521.713     -8410.2049     -2887.0022      760.25883      4369.0331      845.89595    
       200   261.03446     -576.09499     -14131.596     -7590.7051     -11267.132     -7136.5923     -1535.5269      4687.4001     -1591.3669    
       300   270.95964     -575.43528     -2485.9973     -8111.5629     -16273.562     -1186.554      -1479.8068      975.90796     -3601.3778    
Loop time of 10.3202 on 1 procs for 300 steps with 88 atoms

Performance: 2.512 ns/day, 9.556 hours/ns, 29.069 timesteps/s, 2.558 katom-step/s
101.9% CPU use with 1 MPI tasks x 1 OpenMP threads

MPI task timing breakdown:
Section |  min time  |  avg time  |  max time  |%varavg| %total
---------------------------------------------------------------
Pair    | 10.312     | 10.312     | 10.312     |   0.0 | 99.92
Neigh   | 0.00069685 | 0.00069685 | 0.00069685 |   0.0 |  0.01
Comm    | 0.0023281  | 0.0023281  | 0.0023281  |   0.0 |  0.02
Output  | 0.00013061 | 0.00013061 | 0.00013061 |   0.0 |  0.00
Modify  | 0.0038196  | 0.0038196  | 0.0038196  |   0.0 |  0.04
Other   |            | 0.001212   |            |       |  0.01

Nlocal:             88 ave          88 max          88 min
Histogram: 1 0 0 0 0 0 0 0 0 0
Nghost:           1022 ave        1022 max        1022 min
Histogram: 1 0 0 0 0 0 0 0 0 0
Neighs:              0 ave           0 max           0 min
Histogram: 1 0 0 0 0 0 0 0 0 0
FullNghs:         6910 ave        6910 max        6910 min
Histogram: 1 0 0 0 0 0 0 0 0 0

Total # of neighbors = 6910
Ave neighs/atom = 78.522727
Neighbor list builds = 1
Dangerous builds = 0

variable pxx0 equal f_avp[1]
variable pyy0 equal f_avp[2]
variable pzz0 equal f_avp[3]
variable pxy0 equal f_avp[4]
variable pxz0 equal f_avp[5]
variable pyz0 equal f_avp[6]

variable tmp equal lx
variable lx0 equal ${tmp}
variable lx0 equal 6.91317914458083
variable tmp equal ly
variable ly0 equal ${tmp}
variable ly0 equal 6.27641021482539
variable tmp equal lz
variable lz0 equal ${tmp}
variable lz0 equal 22.8805741059216

# These formulas define the derivatives w.r.t. strain components
# Constants uses $, variables use v_
variable d1 equal -(v_pxx1-${pxx0})/(v_delta/v_len0)*${cfac}
variable d1 equal -(v_pxx1--8111.56285717325)/(v_delta/v_len0)*${cfac}
variable d1 equal -(v_pxx1--8111.56285717325)/(v_delta/v_len0)*0.0001
variable d2 equal -(v_pyy1-${pyy0})/(v_delta/v_len0)*${cfac}
variable d2 equal -(v_pyy1--16273.5621757631)/(v_delta/v_len0)*${cfac}
variable d2 equal -(v_pyy1--16273.5621757631)/(v_delta/v_len0)*0.0001
variable d3 equal -(v_pzz1-${pzz0})/(v_delta/v_len0)*${cfac}
variable d3 equal -(v_pzz1--1186.5540415525)/(v_delta/v_len0)*${cfac}
variable d3 equal -(v_pzz1--1186.5540415525)/(v_delta/v_len0)*0.0001
variable d4 equal -(v_pyz1-${pyz0})/(v_delta/v_len0)*${cfac}
variable d4 equal -(v_pyz1--3601.37777941917)/(v_delta/v_len0)*${cfac}
variable d4 equal -(v_pyz1--3601.37777941917)/(v_delta/v_len0)*0.0001
variable d5 equal -(v_pxz1-${pxz0})/(v_delta/v_len0)*${cfac}
variable d5 equal -(v_pxz1-975.907959074996)/(v_delta/v_len0)*${cfac}
variable d5 equal -(v_pxz1-975.907959074996)/(v_delta/v_len0)*0.0001
variable d6 equal -(v_pxy1-${pxy0})/(v_delta/v_len0)*${cfac}
variable d6 equal -(v_pxy1--1479.80675371283)/(v_delta/v_len0)*${cfac}
variable d6 equal -(v_pxy1--1479.80675371283)/(v_delta/v_len0)*0.0001

# Write restart
write_restart restart.equil
System init for write_restart ...
Generated 0 of 6 mixed pair_coeff terms from geometric mixing rule

# uxx Perturbation

variable dir equal 1
include displace.mod
# NOTE: This script should not need to be
# modified. See in.elastic for more info.
#
# Find which reference length to use

if "${dir} == 1" then    "variable len0 equal ${lx0}"
variable len0 equal ${lx0}
variable len0 equal 6.91317914458083
if "${dir} == 2" then    "variable len0 equal ${ly0}"
if "${dir} == 3" then    "variable len0 equal ${lz0}"
if "${dir} == 4" then    "variable len0 equal ${lz0}"
if "${dir} == 5" then    "variable len0 equal ${lz0}"
if "${dir} == 6" then    "variable len0 equal ${ly0}"

# Reset box and simulation parameters

clear
OMP_NUM_THREADS environment is not set. Defaulting to 1 thread. (src/comm.cpp:98)
  using 1 OpenMP thread(s) per MPI task
Loaded 1 plugins from /home/zkm/anaconda3/envs/deepmd/lib/deepmd_lmp
box tilt large

The 'box' command has been removed and will be ignored

read_restart restart.equil
Reading restart file ...
  restart file = 2 Aug 2023, LAMMPS = 2 Aug 2023
  restoring atom style atomic from restart
  triclinic box = (-0.054739572 -0.04579762 -0.23756387) to (6.8584396 6.2306126 22.64301) with tilt (2.8369773 -0.88657934 0.26423941)
  1 by 1 by 1 MPI processor grid
Summary of lammps deepmd module ...
  >>> Info of deepmd-kit:
  installed to:       /home/zkm/anaconda3/envs/deepmd
  source:             v2.2.7
  source branch:       HEAD
  source commit:      839f4fe7
  source commit at:   2023-10-27 21:10:24 +0800
  surpport model ver.:1.1 
  build variant:      cuda
  build with tf inc:  /home/zkm/anaconda3/envs/deepmd/include;/home/zkm/anaconda3/envs/deepmd/include
  build with tf lib:  /home/zkm/anaconda3/envs/deepmd/lib/libtensorflow_cc.so
  set tf intra_op_parallelism_threads: 0
  set tf inter_op_parallelism_threads: 0
  >>> Info of lammps module:
  use deepmd-kit at:  /home/zkm/anaconda3/envs/deepmd  restoring pair style deepmd from restart
  88 atoms
  read_restart CPU = 0.001 seconds
include potential.mod
# NOTE: This script can be modified for different pair styles
# See in.elastic for more info.

# we must undefine any fix ave/* fix before using reset_timestep
if "$(is_defined(fix,avp))" then "unfix avp"
reset_timestep 0


# Choose potential
# pair_style	sw
# pair_coeff * * Si.sw Si

pair_style	deepmd tob11_deepmd_compress.pb
pair_coeff	* * Ca H O Si

atom_modify sort 0 0.0
#kspace_style	ewald 1.0e-6# Setup neighbor style

#neighbor 2.0 bin
neigh_modify once no every 1 delay 0 check yes



# Setup output

fix avp all ave/time  ${nevery} ${nrepeat} ${nfreq} c_thermo_press mode vector
fix avp all ave/time  10 ${nrepeat} ${nfreq} c_thermo_press mode vector
fix avp all ave/time  10 10 ${nfreq} c_thermo_press mode vector
fix avp all ave/time  10 10 100 c_thermo_press mode vector

#min_style cg
#minimize 1.0e-15 1.0e-15 10000 10000 #设置能量最小化

thermo		${nthermo}
thermo		100
thermo_style custom step temp pe press f_avp[1] f_avp[2] f_avp[3] f_avp[4] f_avp[5] f_avp[6]
thermo_modify norm no

# Setup MD

timestep ${timestep}
timestep 0.001
fix 4 all nve
if "${thermostat} == 1" then    "fix 5 all langevin ${temp} ${temp} ${tdamp} ${seed}"
fix 5 all langevin ${temp} ${temp} ${tdamp} ${seed}
fix 5 all langevin 300 ${temp} ${tdamp} ${seed}
fix 5 all langevin 300 300 ${tdamp} ${seed}
fix 5 all langevin 300 300 0.01 ${seed}
fix 5 all langevin 300 300 0.01 123457



# Negative deformation

variable delta equal -${up}*${len0}
variable delta equal -0.02*${len0}
variable delta equal -0.02*6.91317914458083
variable deltaxy equal -${up}*xy
variable deltaxy equal -0.02*xy
variable deltaxz equal -${up}*xz
variable deltaxz equal -0.02*xz
variable deltayz equal -${up}*yz
variable deltayz equal -0.02*yz
if "${dir} == 1" then    "change_box all x delta 0 ${delta} xy delta ${deltaxy} xz delta ${deltaxz} remap units box"
change_box all x delta 0 ${delta} xy delta ${deltaxy} xz delta ${deltaxz} remap units box
change_box all x delta 0 -0.138263582891617 xy delta ${deltaxy} xz delta ${deltaxz} remap units box
change_box all x delta 0 -0.138263582891617 xy delta -0.0567395465990963 xz delta ${deltaxz} remap units box
change_box all x delta 0 -0.138263582891617 xy delta -0.0567395465990963 xz delta 0.0177315868896114 remap units box
Changing box ...
  triclinic box = (-0.054739572 -0.04579762 -0.23756387) to (6.720176 6.2306126 22.64301) with tilt (2.8369773 -0.88657934 0.26423941)
  triclinic box = (-0.054739572 -0.04579762 -0.23756387) to (6.720176 6.2306126 22.64301) with tilt (2.7802378 -0.88657934 0.26423941)
  triclinic box = (-0.054739572 -0.04579762 -0.23756387) to (6.720176 6.2306126 22.64301) with tilt (2.7802378 -0.86884776 0.26423941)
if "${dir} == 2" then    "change_box all y delta 0 ${delta} yz delta ${deltayz} remap units box"
if "${dir} == 3" then    "change_box all z delta 0 ${delta} remap units box"
if "${dir} == 4" then    "change_box all yz delta ${delta} remap units box"
if "${dir} == 5" then    "change_box all xz delta ${delta} remap units box"
if "${dir} == 6" then    "change_box all xy delta ${delta} remap units box"

# Run MD

run ${nequil}
run 1000
Generated 0 of 6 mixed pair_coeff terms from geometric mixing rule
Neighbor list info ...
  update: every = 1 steps, delay = 0 steps, check = yes
  max neighbors/atom: 2000, page size: 100000
  master list distance cutoff = 6
  ghost atom cutoff = 6
  binsize = 3, bins = 4 3 8
  1 neighbor lists, perpetual/occasional/extra = 1 0 0
  (1) pair deepmd, perpetual
      attributes: full, newton on
      pair build: full/bin/atomonly
      stencil: full/bin/3d
      bin: standard
Per MPI rank memory allocation (min/avg/max) = 2.963 | 2.963 | 2.963 Mbytes
   Step          Temp          PotEng         Press         f_avp[1]       f_avp[2]       f_avp[3]       f_avp[4]       f_avp[5]       f_avp[6]   
         0   270.95964     -575.23017      26012.986      0              0              0              0              0              0            
       100   337.14324     -575.63681      2532.5087      15651.2        2126.1522      9745.1484     -6.9918662      1887.3663      376.06312    
       200   269.77742     -575.59785     -792.38611      16774.385     -2435.2503      2220.8153     -2905.015       5432.7933     -659.63838    
       300   267.35238     -575.30764      12383.649      10481.134     -8719.0791      6880.3842     -2271.5332      1099.4837     -3337.2992    
       400   326.74911     -575.86631      7782.5219      14494.413     -1721.72        10790.361     -3002.7642      3706.3898     -967.15681    
       500   294.22212     -575.61473      6959.5339      11111.698      5432.0972      12025.735     -2152.2925      5699.499      -602.0908     
       600   309.62134     -575.52455      16550.344      16469.01       5054.0724      16085.281      1379.3393      4202.8325     -833.90342    
       700   279.19246     -575.32375      1172.6371      9102.5695      15.565276      8936.2159     -4021.9332      3146.5503     -119.10476    
       800   302.34273     -575.34099      6293.0111      9919.9804     -2818.5468      7940.793       227.94871      6621.1012      533.98269    
       900   277.80559     -575.17703      8362.7424      10386.002      3527.659       4552.6355     -2843.7733      2631.0161     -583.61965    
      1000   351.45972     -575.81735      14156.171      17639.531      5124.5903      4898.5869     -2221.1965      811.82804     -473.82153    
Loop time of 34.3512 on 1 procs for 1000 steps with 88 atoms

Performance: 2.515 ns/day, 9.542 hours/ns, 29.111 timesteps/s, 2.562 katom-step/s
101.8% CPU use with 1 MPI tasks x 1 OpenMP threads

MPI task timing breakdown:
Section |  min time  |  avg time  |  max time  |%varavg| %total
---------------------------------------------------------------
Pair    | 34.322     | 34.322     | 34.322     |   0.0 | 99.91
Neigh   | 0.0031934  | 0.0031934  | 0.0031934  |   0.0 |  0.01
Comm    | 0.0085986  | 0.0085986  | 0.0085986  |   0.0 |  0.03
Output  | 0.00045231 | 0.00045231 | 0.00045231 |   0.0 |  0.00
Modify  | 0.013238   | 0.013238   | 0.013238   |   0.0 |  0.04
Other   |            | 0.003994   |            |       |  0.01

Nlocal:             88 ave          88 max          88 min
Histogram: 1 0 0 0 0 0 0 0 0 0
Nghost:           1055 ave        1055 max        1055 min
Histogram: 1 0 0 0 0 0 0 0 0 0
Neighs:              0 ave           0 max           0 min
Histogram: 1 0 0 0 0 0 0 0 0 0
FullNghs:         7062 ave        7062 max        7062 min
Histogram: 1 0 0 0 0 0 0 0 0 0

Total # of neighbors = 7062
Ave neighs/atom = 80.25
Neighbor list builds = 6
Dangerous builds = 0
include potential.mod
# NOTE: This script can be modified for different pair styles
# See in.elastic for more info.

# we must undefine any fix ave/* fix before using reset_timestep
if "$(is_defined(fix,avp))" then "unfix avp"
unfix avp
reset_timestep 0


# Choose potential
# pair_style	sw
# pair_coeff * * Si.sw Si

pair_style	deepmd tob11_deepmd_compress.pb
pair_coeff	* * Ca H O Si

atom_modify sort 0 0.0
#kspace_style	ewald 1.0e-6# Setup neighbor style

#neighbor 2.0 bin
neigh_modify once no every 1 delay 0 check yes



# Setup output

fix avp all ave/time  ${nevery} ${nrepeat} ${nfreq} c_thermo_press mode vector
fix avp all ave/time  10 ${nrepeat} ${nfreq} c_thermo_press mode vector
fix avp all ave/time  10 10 ${nfreq} c_thermo_press mode vector
fix avp all ave/time  10 10 100 c_thermo_press mode vector

#min_style cg
#minimize 1.0e-15 1.0e-15 10000 10000 #设置能量最小化

thermo		${nthermo}
thermo		100
thermo_style custom step temp pe press f_avp[1] f_avp[2] f_avp[3] f_avp[4] f_avp[5] f_avp[6]
WARNING: New thermo_style command, previous thermo_modify settings will be lost (src/output.cpp:903)
thermo_modify norm no

# Setup MD

timestep ${timestep}
timestep 0.001
fix 4 all nve
if "${thermostat} == 1" then    "fix 5 all langevin ${temp} ${temp} ${tdamp} ${seed}"
fix 5 all langevin ${temp} ${temp} ${tdamp} ${seed}
fix 5 all langevin 300 ${temp} ${tdamp} ${seed}
fix 5 all langevin 300 300 ${tdamp} ${seed}
fix 5 all langevin 300 300 0.01 ${seed}
fix 5 all langevin 300 300 0.01 123457


run ${nrun}
run 300
Generated 0 of 6 mixed pair_coeff terms from geometric mixing rule
Per MPI rank memory allocation (min/avg/max) = 2.963 | 2.963 | 2.963 Mbytes
   Step          Temp          PotEng         Press         f_avp[1]       f_avp[2]       f_avp[3]       f_avp[4]       f_avp[5]       f_avp[6]   
         0   351.45972     -575.81735      14156.171      0              0              0              0              0              0            
       100   327.51983     -575.66594      3000.7475      7631.4479      2973.0594      11725.263     -272.64483      6272.0474      600.58662    
       200   271.09346     -576.08601      1452.3774      12098.425     -955.26702      6373.1746     -3053.5955      4067.6183     -1641.6724    
       300   248.65463     -575.38626      15338.814      11293.911     -2789.2876      16027.237     -2203.0093      2339.4086     -3321.1013    
Loop time of 5.58707 on 1 procs for 300 steps with 88 atoms

Performance: 4.639 ns/day, 5.173 hours/ns, 53.695 timesteps/s, 4.725 katom-step/s
104.8% CPU use with 1 MPI tasks x 1 OpenMP threads

MPI task timing breakdown:
Section |  min time  |  avg time  |  max time  |%varavg| %total
---------------------------------------------------------------
Pair    | 5.5786     | 5.5786     | 5.5786     |   0.0 | 99.85
Neigh   | 0.0002961  | 0.0002961  | 0.0002961  |   0.0 |  0.01
Comm    | 0.002607   | 0.002607   | 0.002607   |   0.0 |  0.05
Output  | 0.00013551 | 0.00013551 | 0.00013551 |   0.0 |  0.00
Modify  | 0.0041393  | 0.0041393  | 0.0041393  |   0.0 |  0.07
Other   |            | 0.001298   |            |       |  0.02

Nlocal:             88 ave          88 max          88 min
Histogram: 1 0 0 0 0 0 0 0 0 0
Nghost:           1022 ave        1022 max        1022 min
Histogram: 1 0 0 0 0 0 0 0 0 0
Neighs:              0 ave           0 max           0 min
Histogram: 1 0 0 0 0 0 0 0 0 0
FullNghs:         7042 ave        7042 max        7042 min
Histogram: 1 0 0 0 0 0 0 0 0 0

Total # of neighbors = 7042
Ave neighs/atom = 80.022727
Neighbor list builds = 1
Dangerous builds = 0

# Obtain new stress tensor

variable pxx1 equal f_avp[1]
variable pyy1 equal f_avp[2]
variable pzz1 equal f_avp[3]
variable pxy1 equal f_avp[4]
variable pxz1 equal f_avp[5]
variable pyz1 equal f_avp[6]

# Compute elastic constant from pressure tensor

variable C1neg equal ${d1}
variable C1neg equal 97.027371276953
variable C2neg equal ${d2}
variable C2neg equal 67.4213727789288
variable C3neg equal ${d3}
variable C3neg equal 86.0689543145773
variable C4neg equal ${d4}
variable C4neg equal 1.40138249125335
variable C5neg equal ${d5}
variable C5neg equal 6.817502964503
variable C6neg equal ${d6}
variable C6neg equal -3.61601289368289

# Reset box and simulation parameters

clear
OMP_NUM_THREADS environment is not set. Defaulting to 1 thread. (src/comm.cpp:98)
  using 1 OpenMP thread(s) per MPI task
Loaded 1 plugins from /home/zkm/anaconda3/envs/deepmd/lib/deepmd_lmp
box tilt large

The 'box' command has been removed and will be ignored

read_restart restart.equil
Reading restart file ...
  restart file = 2 Aug 2023, LAMMPS = 2 Aug 2023
  restoring atom style atomic from restart
  triclinic box = (-0.054739572 -0.04579762 -0.23756387) to (6.8584396 6.2306126 22.64301) with tilt (2.8369773 -0.88657934 0.26423941)
  1 by 1 by 1 MPI processor grid
Summary of lammps deepmd module ...
  >>> Info of deepmd-kit:
  installed to:       /home/zkm/anaconda3/envs/deepmd
  source:             v2.2.7
  source branch:       HEAD
  source commit:      839f4fe7
  source commit at:   2023-10-27 21:10:24 +0800
  surpport model ver.:1.1 
  build variant:      cuda
  build with tf inc:  /home/zkm/anaconda3/envs/deepmd/include;/home/zkm/anaconda3/envs/deepmd/include
  build with tf lib:  /home/zkm/anaconda3/envs/deepmd/lib/libtensorflow_cc.so
  set tf intra_op_parallelism_threads: 0
  set tf inter_op_parallelism_threads: 0
  >>> Info of lammps module:
  use deepmd-kit at:  /home/zkm/anaconda3/envs/deepmd  restoring pair style deepmd from restart
  88 atoms
  read_restart CPU = 0.001 seconds
include potential.mod
# NOTE: This script can be modified for different pair styles
# See in.elastic for more info.

# we must undefine any fix ave/* fix before using reset_timestep
if "$(is_defined(fix,avp))" then "unfix avp"
reset_timestep 0


# Choose potential
# pair_style	sw
# pair_coeff * * Si.sw Si

pair_style	deepmd tob11_deepmd_compress.pb
pair_coeff	* * Ca H O Si

atom_modify sort 0 0.0
#kspace_style	ewald 1.0e-6# Setup neighbor style

#neighbor 2.0 bin
neigh_modify once no every 1 delay 0 check yes



# Setup output

fix avp all ave/time  ${nevery} ${nrepeat} ${nfreq} c_thermo_press mode vector
fix avp all ave/time  10 ${nrepeat} ${nfreq} c_thermo_press mode vector
fix avp all ave/time  10 10 ${nfreq} c_thermo_press mode vector
fix avp all ave/time  10 10 100 c_thermo_press mode vector

#min_style cg
#minimize 1.0e-15 1.0e-15 10000 10000 #设置能量最小化

thermo		${nthermo}
thermo		100
thermo_style custom step temp pe press f_avp[1] f_avp[2] f_avp[3] f_avp[4] f_avp[5] f_avp[6]
thermo_modify norm no

# Setup MD

timestep ${timestep}
timestep 0.001
fix 4 all nve
if "${thermostat} == 1" then    "fix 5 all langevin ${temp} ${temp} ${tdamp} ${seed}"
fix 5 all langevin ${temp} ${temp} ${tdamp} ${seed}
fix 5 all langevin 300 ${temp} ${tdamp} ${seed}
fix 5 all langevin 300 300 ${tdamp} ${seed}
fix 5 all langevin 300 300 0.01 ${seed}
fix 5 all langevin 300 300 0.01 123457



# Positive deformation

variable delta equal ${up}*${len0}
variable delta equal 0.02*${len0}
variable delta equal 0.02*6.91317914458083
variable deltaxy equal ${up}*xy
variable deltaxy equal 0.02*xy
variable deltaxz equal ${up}*xz
variable deltaxz equal 0.02*xz
variable deltayz equal ${up}*yz
variable deltayz equal 0.02*yz
if "${dir} == 1" then    "change_box all x delta 0 ${delta} xy delta ${deltaxy} xz delta ${deltaxz} remap units box"
change_box all x delta 0 ${delta} xy delta ${deltaxy} xz delta ${deltaxz} remap units box
change_box all x delta 0 0.138263582891617 xy delta ${deltaxy} xz delta ${deltaxz} remap units box
change_box all x delta 0 0.138263582891617 xy delta 0.0567395465990963 xz delta ${deltaxz} remap units box
change_box all x delta 0 0.138263582891617 xy delta 0.0567395465990963 xz delta -0.0177315868896114 remap units box
Changing box ...
  triclinic box = (-0.054739572 -0.04579762 -0.23756387) to (6.9967032 6.2306126 22.64301) with tilt (2.8369773 -0.88657934 0.26423941)
  triclinic box = (-0.054739572 -0.04579762 -0.23756387) to (6.9967032 6.2306126 22.64301) with tilt (2.8937169 -0.88657934 0.26423941)
  triclinic box = (-0.054739572 -0.04579762 -0.23756387) to (6.9967032 6.2306126 22.64301) with tilt (2.8937169 -0.90431093 0.26423941)
if "${dir} == 2" then    "change_box all y delta 0 ${delta} yz delta ${deltayz} remap units box"
if "${dir} == 3" then    "change_box all z delta 0 ${delta} remap units box"
if "${dir} == 4" then    "change_box all yz delta ${delta} remap units box"
if "${dir} == 5" then    "change_box all xz delta ${delta} remap units box"
if "${dir} == 6" then    "change_box all xy delta ${delta} remap units box"

# Run MD

run ${nequil}
run 1000
Generated 0 of 6 mixed pair_coeff terms from geometric mixing rule
Neighbor list info ...
  update: every = 1 steps, delay = 0 steps, check = yes
  max neighbors/atom: 2000, page size: 100000
  master list distance cutoff = 6
  ghost atom cutoff = 6
  binsize = 3, bins = 4 3 8
  1 neighbor lists, perpetual/occasional/extra = 1 0 0
  (1) pair deepmd, perpetual
      attributes: full, newton on
      pair build: full/bin/atomonly
      stencil: full/bin/3d
      bin: standard
Per MPI rank memory allocation (min/avg/max) = 2.962 | 2.962 | 2.962 Mbytes
   Step          Temp          PotEng         Press         f_avp[1]       f_avp[2]       f_avp[3]       f_avp[4]       f_avp[5]       f_avp[6]   
         0   270.95964     -575.04533     -27616.652      0              0              0              0              0              0            
       100   343.21969     -575.26604     -20516.437     -26175.832     -17618.846     -9283.6455      5730.1387      2522.3074      333.09134    
       200   263.85207     -575.43248     -21230.919     -19961.713     -19607.965     -11731.058      1531.8135      5599.1899     -944.55256    
       300   268.74359     -574.84606     -8503.7442     -21254.728     -24174.215     -6836.9216      1672.7618      673.6466      -3548.5912    
       400   334.55609     -575.48048     -10253.589     -18792.589     -18860.596     -4284.2567     -123.27963      3368.1341     -491.7145     
       500   288.74509     -575.37195     -9198.8151     -19769.288     -10248.033     -3208.9844      1236.6261      4864.7255     -1105.5203    
       600   313.08874     -575.3221      -5096.2293     -12364.586     -8712.2219      2734.5028      6283.893       3066.8171     -1234.4499    
       700   265.27745     -574.82867     -21792.432     -23330.919     -14434.648     -5370.7388      461.25872      3743.2619      1004.3555    
       800   301.32499     -575.07021     -11489.259     -21768.622     -17964.982     -6845.8883      2607.0706      8131.5598     -1570.1       
       900   296.57942     -574.95343     -15052.912     -25819.518     -11710.935     -11782.986      3372.4288      3431.0351     -2211.7553    
      1000   363.83333     -575.55112     -8038.7431     -18765.749     -11608.396     -12728.341      2411.7889      1272.5894     -2424.5303    
Loop time of 33.6877 on 1 procs for 1000 steps with 88 atoms

Performance: 2.565 ns/day, 9.358 hours/ns, 29.684 timesteps/s, 2.612 katom-step/s
101.8% CPU use with 1 MPI tasks x 1 OpenMP threads

MPI task timing breakdown:
Section |  min time  |  avg time  |  max time  |%varavg| %total
---------------------------------------------------------------
Pair    | 33.661     | 33.661     | 33.661     |   0.0 | 99.92
Neigh   | 0.0012728  | 0.0012728  | 0.0012728  |   0.0 |  0.00
Comm    | 0.0080227  | 0.0080227  | 0.0080227  |   0.0 |  0.02
Output  | 0.00037007 | 0.00037007 | 0.00037007 |   0.0 |  0.00
Modify  | 0.012691   | 0.012691   | 0.012691   |   0.0 |  0.04
Other   |            | 0.004027   |            |       |  0.01

Nlocal:             88 ave          88 max          88 min
Histogram: 1 0 0 0 0 0 0 0 0 0
Nghost:           1025 ave        1025 max        1025 min
Histogram: 1 0 0 0 0 0 0 0 0 0
Neighs:              0 ave           0 max           0 min
Histogram: 1 0 0 0 0 0 0 0 0 0
FullNghs:         6746 ave        6746 max        6746 min
Histogram: 1 0 0 0 0 0 0 0 0 0

Total # of neighbors = 6746
Ave neighs/atom = 76.659091
Neighbor list builds = 3
Dangerous builds = 0
include potential.mod
# NOTE: This script can be modified for different pair styles
# See in.elastic for more info.

# we must undefine any fix ave/* fix before using reset_timestep
if "$(is_defined(fix,avp))" then "unfix avp"
unfix avp
reset_timestep 0


# Choose potential
# pair_style	sw
# pair_coeff * * Si.sw Si

pair_style	deepmd tob11_deepmd_compress.pb
pair_coeff	* * Ca H O Si

atom_modify sort 0 0.0
#kspace_style	ewald 1.0e-6# Setup neighbor style

#neighbor 2.0 bin
neigh_modify once no every 1 delay 0 check yes



# Setup output

fix avp all ave/time  ${nevery} ${nrepeat} ${nfreq} c_thermo_press mode vector
fix avp all ave/time  10 ${nrepeat} ${nfreq} c_thermo_press mode vector
fix avp all ave/time  10 10 ${nfreq} c_thermo_press mode vector
fix avp all ave/time  10 10 100 c_thermo_press mode vector

#min_style cg
#minimize 1.0e-15 1.0e-15 10000 10000 #设置能量最小化

thermo		${nthermo}
thermo		100
thermo_style custom step temp pe press f_avp[1] f_avp[2] f_avp[3] f_avp[4] f_avp[5] f_avp[6]
WARNING: New thermo_style command, previous thermo_modify settings will be lost (src/output.cpp:903)
thermo_modify norm no

# Setup MD

timestep ${timestep}
timestep 0.001
fix 4 all nve
if "${thermostat} == 1" then    "fix 5 all langevin ${temp} ${temp} ${tdamp} ${seed}"
fix 5 all langevin ${temp} ${temp} ${tdamp} ${seed}
fix 5 all langevin 300 ${temp} ${tdamp} ${seed}
fix 5 all langevin 300 300 ${tdamp} ${seed}
fix 5 all langevin 300 300 0.01 ${seed}
fix 5 all langevin 300 300 0.01 123457


run ${nrun}
run 300
Generated 0 of 6 mixed pair_coeff terms from geometric mixing rule
Per MPI rank memory allocation (min/avg/max) = 2.962 | 2.962 | 2.962 Mbytes
   Step          Temp          PotEng         Press         f_avp[1]       f_avp[2]       f_avp[3]       f_avp[4]       f_avp[5]       f_avp[6]   
         0   363.83333     -575.55112     -8038.7431      0              0              0              0              0              0            
       100   343.88152     -575.41736     -18249.612     -26255.796     -12148.038     -6301.6199      3829.2944      6733.1905     -1698.7305    
       200   260.76939     -575.80178     -22514.709     -22678.283     -15305.397     -11312.92       1656.2832      6204.4721     -2943.9823    
       300   271.31102     -575.21002     -12877.239     -27744.289     -22843.173     -5037.9085      2087.4391      2715.6415     -5253.8113    
Loop time of 10.4732 on 1 procs for 300 steps with 88 atoms

Performance: 2.475 ns/day, 9.697 hours/ns, 28.645 timesteps/s, 2.521 katom-step/s
101.5% CPU use with 1 MPI tasks x 1 OpenMP threads

MPI task timing breakdown:
Section |  min time  |  avg time  |  max time  |%varavg| %total
---------------------------------------------------------------
Pair    | 10.465     | 10.465     | 10.465     |   0.0 | 99.92
Neigh   | 0.00074812 | 0.00074812 | 0.00074812 |   0.0 |  0.01
Comm    | 0.0025525  | 0.0025525  | 0.0025525  |   0.0 |  0.02
Output  | 0.00011457 | 0.00011457 | 0.00011457 |   0.0 |  0.00
Modify  | 0.0038801  | 0.0038801  | 0.0038801  |   0.0 |  0.04
Other   |            | 0.001262   |            |       |  0.01

Nlocal:             88 ave          88 max          88 min
Histogram: 1 0 0 0 0 0 0 0 0 0
Nghost:           1016 ave        1016 max        1016 min
Histogram: 1 0 0 0 0 0 0 0 0 0
Neighs:              0 ave           0 max           0 min
Histogram: 1 0 0 0 0 0 0 0 0 0
FullNghs:         6760 ave        6760 max        6760 min
Histogram: 1 0 0 0 0 0 0 0 0 0

Total # of neighbors = 6760
Ave neighs/atom = 76.818182
Neighbor list builds = 1
Dangerous builds = 0

# Obtain new stress tensor

variable pxx1 equal f_avp[1]
variable pyy1 equal f_avp[2]
variable pzz1 equal f_avp[3]
variable pxy1 equal f_avp[4]
variable pxz1 equal f_avp[5]
variable pyz1 equal f_avp[6]

# Compute elastic constant from pressure tensor

variable C1pos equal ${d1}
variable C1pos equal 98.1636302188355
variable C2pos equal ${d2}
variable C2pos equal 32.8480558977339
variable C3pos equal ${d3}
variable C3pos equal 19.256772336307
variable C4pos equal ${d4}
variable C4pos equal 8.26216757237587
variable C5pos equal ${d5}
variable C5pos equal -8.69866786319745
variable C6pos equal ${d6}
variable C6pos equal -17.8362290686128

# Combine positive and negative

variable C1${dir} equal 0.5*(${C1neg}+${C1pos})
variable C11 equal 0.5*(${C1neg}+${C1pos})
variable C11 equal 0.5*(97.027371276953+${C1pos})
variable C11 equal 0.5*(97.027371276953+98.1636302188355)
variable C2${dir} equal 0.5*(${C2neg}+${C2pos})
variable C21 equal 0.5*(${C2neg}+${C2pos})
variable C21 equal 0.5*(67.4213727789288+${C2pos})
variable C21 equal 0.5*(67.4213727789288+32.8480558977339)
variable C3${dir} equal 0.5*(${C3neg}+${C3pos})
variable C31 equal 0.5*(${C3neg}+${C3pos})
variable C31 equal 0.5*(86.0689543145773+${C3pos})
variable C31 equal 0.5*(86.0689543145773+19.256772336307)
variable C4${dir} equal 0.5*(${C4neg}+${C4pos})
variable C41 equal 0.5*(${C4neg}+${C4pos})
variable C41 equal 0.5*(1.40138249125335+${C4pos})
variable C41 equal 0.5*(1.40138249125335+8.26216757237587)
variable C5${dir} equal 0.5*(${C5neg}+${C5pos})
variable C51 equal 0.5*(${C5neg}+${C5pos})
variable C51 equal 0.5*(6.817502964503+${C5pos})
variable C51 equal 0.5*(6.817502964503+-8.69866786319745)
variable C6${dir} equal 0.5*(${C6neg}+${C6pos})
variable C61 equal 0.5*(${C6neg}+${C6pos})
variable C61 equal 0.5*(-3.61601289368289+${C6pos})
variable C61 equal 0.5*(-3.61601289368289+-17.8362290686128)

# Delete dir to make sure it is not reused

variable dir delete

# uyy Perturbation

variable dir equal 2
include displace.mod
# NOTE: This script should not need to be
# modified. See in.elastic for more info.
#
# Find which reference length to use

if "${dir} == 1" then    "variable len0 equal ${lx0}"
if "${dir} == 2" then    "variable len0 equal ${ly0}"
variable len0 equal ${ly0}
variable len0 equal 6.27641021482539
if "${dir} == 3" then    "variable len0 equal ${lz0}"
if "${dir} == 4" then    "variable len0 equal ${lz0}"
if "${dir} == 5" then    "variable len0 equal ${lz0}"
if "${dir} == 6" then    "variable len0 equal ${ly0}"

# Reset box and simulation parameters

clear
OMP_NUM_THREADS environment is not set. Defaulting to 1 thread. (src/comm.cpp:98)
  using 1 OpenMP thread(s) per MPI task
Loaded 1 plugins from /home/zkm/anaconda3/envs/deepmd/lib/deepmd_lmp
box tilt large

The 'box' command has been removed and will be ignored

read_restart restart.equil
Reading restart file ...
  restart file = 2 Aug 2023, LAMMPS = 2 Aug 2023
  restoring atom style atomic from restart
  triclinic box = (-0.054739572 -0.04579762 -0.23756387) to (6.8584396 6.2306126 22.64301) with tilt (2.8369773 -0.88657934 0.26423941)
  1 by 1 by 1 MPI processor grid
Summary of lammps deepmd module ...
  >>> Info of deepmd-kit:
  installed to:       /home/zkm/anaconda3/envs/deepmd
  source:             v2.2.7
  source branch:       HEAD
  source commit:      839f4fe7
  source commit at:   2023-10-27 21:10:24 +0800
  surpport model ver.:1.1 
  build variant:      cuda
  build with tf inc:  /home/zkm/anaconda3/envs/deepmd/include;/home/zkm/anaconda3/envs/deepmd/include
  build with tf lib:  /home/zkm/anaconda3/envs/deepmd/lib/libtensorflow_cc.so
  set tf intra_op_parallelism_threads: 0
  set tf inter_op_parallelism_threads: 0
  >>> Info of lammps module:
  use deepmd-kit at:  /home/zkm/anaconda3/envs/deepmd  restoring pair style deepmd from restart
  88 atoms
  read_restart CPU = 0.000 seconds
include potential.mod
# NOTE: This script can be modified for different pair styles
# See in.elastic for more info.

# we must undefine any fix ave/* fix before using reset_timestep
if "$(is_defined(fix,avp))" then "unfix avp"
reset_timestep 0


# Choose potential
# pair_style	sw
# pair_coeff * * Si.sw Si

pair_style	deepmd tob11_deepmd_compress.pb
pair_coeff	* * Ca H O Si

atom_modify sort 0 0.0
#kspace_style	ewald 1.0e-6# Setup neighbor style

#neighbor 2.0 bin
neigh_modify once no every 1 delay 0 check yes



# Setup output

fix avp all ave/time  ${nevery} ${nrepeat} ${nfreq} c_thermo_press mode vector
fix avp all ave/time  10 ${nrepeat} ${nfreq} c_thermo_press mode vector
fix avp all ave/time  10 10 ${nfreq} c_thermo_press mode vector
fix avp all ave/time  10 10 100 c_thermo_press mode vector

#min_style cg
#minimize 1.0e-15 1.0e-15 10000 10000 #设置能量最小化

thermo		${nthermo}
thermo		100
thermo_style custom step temp pe press f_avp[1] f_avp[2] f_avp[3] f_avp[4] f_avp[5] f_avp[6]
thermo_modify norm no

# Setup MD

timestep ${timestep}
timestep 0.001
fix 4 all nve
if "${thermostat} == 1" then    "fix 5 all langevin ${temp} ${temp} ${tdamp} ${seed}"
fix 5 all langevin ${temp} ${temp} ${tdamp} ${seed}
fix 5 all langevin 300 ${temp} ${tdamp} ${seed}
fix 5 all langevin 300 300 ${tdamp} ${seed}
fix 5 all langevin 300 300 0.01 ${seed}
fix 5 all langevin 300 300 0.01 123457



# Negative deformation

variable delta equal -${up}*${len0}
variable delta equal -0.02*${len0}
variable delta equal -0.02*6.27641021482539
variable deltaxy equal -${up}*xy
variable deltaxy equal -0.02*xy
variable deltaxz equal -${up}*xz
variable deltaxz equal -0.02*xz
variable deltayz equal -${up}*yz
variable deltayz equal -0.02*yz
if "${dir} == 1" then    "change_box all x delta 0 ${delta} xy delta ${deltaxy} xz delta ${deltaxz} remap units box"
if "${dir} == 2" then    "change_box all y delta 0 ${delta} yz delta ${deltayz} remap units box"
change_box all y delta 0 ${delta} yz delta ${deltayz} remap units box
change_box all y delta 0 -0.125528204296508 yz delta ${deltayz} remap units box
change_box all y delta 0 -0.125528204296508 yz delta -0.00528478818683225 remap units box
Changing box ...
  triclinic box = (-0.054739572 -0.04579762 -0.23756387) to (6.8584396 6.1050844 22.64301) with tilt (2.8369773 -0.88657934 0.26423941)
  triclinic box = (-0.054739572 -0.04579762 -0.23756387) to (6.8584396 6.1050844 22.64301) with tilt (2.8369773 -0.88657934 0.25895462)
if "${dir} == 3" then    "change_box all z delta 0 ${delta} remap units box"
if "${dir} == 4" then    "change_box all yz delta ${delta} remap units box"
if "${dir} == 5" then    "change_box all xz delta ${delta} remap units box"
if "${dir} == 6" then    "change_box all xy delta ${delta} remap units box"

# Run MD

run ${nequil}
run 1000
Generated 0 of 6 mixed pair_coeff terms from geometric mixing rule
Neighbor list info ...
  update: every = 1 steps, delay = 0 steps, check = yes
  max neighbors/atom: 2000, page size: 100000
  master list distance cutoff = 6
  ghost atom cutoff = 6
  binsize = 3, bins = 4 3 8
  1 neighbor lists, perpetual/occasional/extra = 1 0 0
  (1) pair deepmd, perpetual
      attributes: full, newton on
      pair build: full/bin/atomonly
      stencil: full/bin/3d
      bin: standard
Per MPI rank memory allocation (min/avg/max) = 2.963 | 2.963 | 2.963 Mbytes
   Step          Temp          PotEng         Press         f_avp[1]       f_avp[2]       f_avp[3]       f_avp[4]       f_avp[5]       f_avp[6]   
         0   270.95964     -575.27434      25296.47       0              0              0              0              0              0            
       100   340.64397     -575.5819       5575.4944      3628.8384      20817.845      12512.772     -1095.4554      2334.9235      841.86464    
       200   265.35046     -575.66948      3034.8315      5794.9238      14475.929      5027.5864     -3997.8697      5366.301      -742.74043    
       300   265.82748     -575.05761      15044.733      3225.3427      7841.1564      10172.543     -4280.2282      621.84316     -3270.5674    
       400   327.30976     -575.72352      12432.114      5375.6686      12583.476      11856.39      -6747.9172      2948.3132     -1036.2219    
       500   289.40996     -575.57017      11331.511      1905.0922      20796.878      11884.235     -4988.2949      4467.9826     -464.27585    
       600   317.05927     -575.5694       18970.844      8487.975       22670.291      17567.885      400.37497      3953.3688      206.6706     
       700   281.24017     -575.35511      6156.2346      893.46933      18432.578      11939.018     -4587.6359      3653.3135      1623.1373    
       800   302.70956     -575.35703      9040.7482      461.01078      13624.672      7870.8867     -516.05325      7231.5591     -539.3465     
       900   279.64142     -575.30774      9483.226      -935.25721      20768.936      5783.2132     -2424.3611      2109.4183     -1043.1253    
      1000   355.76704     -575.8407       15281.433      4685.9366      21338.796      4505.6389     -2527.5183      1356.7219     -2108.5087    
Loop time of 7.77056 on 1 procs for 1000 steps with 88 atoms

Performance: 11.119 ns/day, 2.158 hours/ns, 128.691 timesteps/s, 11.325 katom-step/s
114.4% CPU use with 1 MPI tasks x 1 OpenMP threads

MPI task timing breakdown:
Section |  min time  |  avg time  |  max time  |%varavg| %total
---------------------------------------------------------------
Pair    | 7.7388     | 7.7388     | 7.7388     |   0.0 | 99.59
Neigh   | 0.0017642  | 0.0017642  | 0.0017642  |   0.0 |  0.02
Comm    | 0.0095602  | 0.0095602  | 0.0095602  |   0.0 |  0.12
Output  | 0.00040895 | 0.00040895 | 0.00040895 |   0.0 |  0.01
Modify  | 0.015418   | 0.015418   | 0.015418   |   0.0 |  0.20
Other   |            | 0.004566   |            |       |  0.06

Nlocal:             88 ave          88 max          88 min
Histogram: 1 0 0 0 0 0 0 0 0 0
Nghost:           1031 ave        1031 max        1031 min
Histogram: 1 0 0 0 0 0 0 0 0 0
Neighs:              0 ave           0 max           0 min
Histogram: 1 0 0 0 0 0 0 0 0 0
FullNghs:         7034 ave        7034 max        7034 min
Histogram: 1 0 0 0 0 0 0 0 0 0

Total # of neighbors = 7034
Ave neighs/atom = 79.931818
Neighbor list builds = 4
Dangerous builds = 0
include potential.mod
# NOTE: This script can be modified for different pair styles
# See in.elastic for more info.

# we must undefine any fix ave/* fix before using reset_timestep
if "$(is_defined(fix,avp))" then "unfix avp"
unfix avp
reset_timestep 0


# Choose potential
# pair_style	sw
# pair_coeff * * Si.sw Si

pair_style	deepmd tob11_deepmd_compress.pb
pair_coeff	* * Ca H O Si

atom_modify sort 0 0.0
#kspace_style	ewald 1.0e-6# Setup neighbor style

#neighbor 2.0 bin
neigh_modify once no every 1 delay 0 check yes



# Setup output

fix avp all ave/time  ${nevery} ${nrepeat} ${nfreq} c_thermo_press mode vector
fix avp all ave/time  10 ${nrepeat} ${nfreq} c_thermo_press mode vector
fix avp all ave/time  10 10 ${nfreq} c_thermo_press mode vector
fix avp all ave/time  10 10 100 c_thermo_press mode vector

#min_style cg
#minimize 1.0e-15 1.0e-15 10000 10000 #设置能量最小化

thermo		${nthermo}
thermo		100
thermo_style custom step temp pe press f_avp[1] f_avp[2] f_avp[3] f_avp[4] f_avp[5] f_avp[6]
WARNING: New thermo_style command, previous thermo_modify settings will be lost (src/output.cpp:903)
thermo_modify norm no

# Setup MD

timestep ${timestep}
timestep 0.001
fix 4 all nve
if "${thermostat} == 1" then    "fix 5 all langevin ${temp} ${temp} ${tdamp} ${seed}"
fix 5 all langevin ${temp} ${temp} ${tdamp} ${seed}
fix 5 all langevin 300 ${temp} ${tdamp} ${seed}
fix 5 all langevin 300 300 ${tdamp} ${seed}
fix 5 all langevin 300 300 0.01 ${seed}
fix 5 all langevin 300 300 0.01 123457


run ${nrun}
run 300
Generated 0 of 6 mixed pair_coeff terms from geometric mixing rule
Per MPI rank memory allocation (min/avg/max) = 2.963 | 2.963 | 2.963 Mbytes
   Step          Temp          PotEng         Press         f_avp[1]       f_avp[2]       f_avp[3]       f_avp[4]       f_avp[5]       f_avp[6]   
         0   355.76704     -575.8407       15281.433      0              0              0              0              0              0            
       100   342.16673     -575.62972      4537.615      -4907.9461      19800.718      10140.961     -301.11923      7677.1678     -1421.9698    
       200   267.32364     -576.13549      774.93049      74.798402      13305.374      1861.1779     -3122.1853      5346.872      -1476.3191    
       300   262.13787     -575.50516      13916.748     -1026.1716      9207.1424      11527.577     -3390.8931      2056.4846     -4060.1119    
Loop time of 9.7648 on 1 procs for 300 steps with 88 atoms

Performance: 2.654 ns/day, 9.041 hours/ns, 30.723 timesteps/s, 2.704 katom-step/s
102.2% CPU use with 1 MPI tasks x 1 OpenMP threads

MPI task timing breakdown:
Section |  min time  |  avg time  |  max time  |%varavg| %total
---------------------------------------------------------------
Pair    | 9.7513     | 9.7513     | 9.7513     |   0.0 | 99.86
Neigh   | 0.00079443 | 0.00079443 | 0.00079443 |   0.0 |  0.01
Comm    | 0.0025116  | 0.0025116  | 0.0025116  |   0.0 |  0.03
Output  | 0.00012933 | 0.00012933 | 0.00012933 |   0.0 |  0.00
Modify  | 0.008753   | 0.008753   | 0.008753   |   0.0 |  0.09
Other   |            | 0.001264   |            |       |  0.01

Nlocal:             88 ave          88 max          88 min
Histogram: 1 0 0 0 0 0 0 0 0 0
Nghost:           1028 ave        1028 max        1028 min
Histogram: 1 0 0 0 0 0 0 0 0 0
Neighs:              0 ave           0 max           0 min
Histogram: 1 0 0 0 0 0 0 0 0 0
FullNghs:         7044 ave        7044 max        7044 min
Histogram: 1 0 0 0 0 0 0 0 0 0

Total # of neighbors = 7044
Ave neighs/atom = 80.045455
Neighbor list builds = 1
Dangerous builds = 0

# Obtain new stress tensor

variable pxx1 equal f_avp[1]
variable pyy1 equal f_avp[2]
variable pzz1 equal f_avp[3]
variable pxy1 equal f_avp[4]
variable pxz1 equal f_avp[5]
variable pyz1 equal f_avp[6]

# Compute elastic constant from pressure tensor

variable C1neg equal ${d1}
variable C1neg equal 35.4269562720337
variable C2neg equal ${d2}
variable C2neg equal 127.40352288481
variable C3neg equal ${d3}
variable C3neg equal 63.5706538987759
variable C4neg equal ${d4}
variable C4neg equal -2.2936705914303
variable C5neg equal ${d5}
variable C5neg equal 5.40288321506381
variable C6neg equal ${d6}
variable C6neg equal -9.55543169436354

# Reset box and simulation parameters

clear
[...]
  using 1 OpenMP thread(s) per MPI task
Loaded 1 plugins from /home/zkm/anaconda3/envs/deepmd/lib/deepmd_lmp
box tilt large

The 'box' command has been removed and will be ignored

read_restart restart.equil
Reading restart file ...
  restart file = 2 Aug 2023, LAMMPS = 2 Aug 2023
  restoring atom style atomic from restart
  triclinic box = (-0.054739572 -0.04579762 -0.23756387) to (6.8584396 6.2306126 22.64301) with tilt (2.8369773 -0.88657934 0.26423941)
  1 by 1 by 1 MPI processor grid
Summary of lammps deepmd module ...
  >>> Info of deepmd-kit:
  installed to:       /home/zkm/anaconda3/envs/deepmd
  source:             v2.2.7
  source branch:       HEAD
  source commit:      839f4fe7
  source commit at:   2023-10-27 21:10:24 +0800
  surpport model ver.:1.1 
  build variant:      cuda
  build with tf inc:  /home/zkm/anaconda3/envs/deepmd/include;/home/zkm/anaconda3/envs/deepmd/include
  build with tf lib:  /home/zkm/anaconda3/envs/deepmd/lib/libtensorflow_cc.so
  set tf intra_op_parallelism_threads: 0
  set tf inter_op_parallelism_threads: 0
  >>> Info of lammps module:
  use deepmd-kit at:  /home/zkm/anaconda3/envs/deepmd  restoring pair style deepmd from restart
  88 atoms
  read_restart CPU = 0.001 seconds
include potential.mod
# NOTE: This script can be modified for different pair styles
# See in.elastic for more info.

# we must undefine any fix ave/* fix before using reset_timestep
if "$(is_defined(fix,avp))" then "unfix avp"
reset_timestep 0


# Choose potential
# pair_style	sw
# pair_coeff * * Si.sw Si

pair_style	deepmd tob11_deepmd_compress.pb
pair_coeff	* * Ca H O Si

atom_modify sort 0 0.0
#kspace_style	ewald 1.0e-6# Setup neighbor style

#neighbor 2.0 bin
neigh_modify once no every 1 delay 0 check yes



# Setup output

fix avp all ave/time  ${nevery} ${nrepeat} ${nfreq} c_thermo_press mode vector
fix avp all ave/time  10 ${nrepeat} ${nfreq} c_thermo_press mode vector
fix avp all ave/time  10 10 ${nfreq} c_thermo_press mode vector
fix avp all ave/time  10 10 100 c_thermo_press mode vector

#min_style cg
#minimize 1.0e-15 1.0e-15 10000 10000 #设置能量最小化

thermo		${nthermo}
thermo		100
thermo_style custom step temp pe press f_avp[1] f_avp[2] f_avp[3] f_avp[4] f_avp[5] f_avp[6]
thermo_modify norm no

# Setup MD

timestep ${timestep}
timestep 0.001
fix 4 all nve
if "${thermostat} == 1" then    "fix 5 all langevin ${temp} ${temp} ${tdamp} ${seed}"
fix 5 all langevin ${temp} ${temp} ${tdamp} ${seed}
fix 5 all langevin 300 ${temp} ${tdamp} ${seed}
fix 5 all langevin 300 300 ${tdamp} ${seed}
fix 5 all langevin 300 300 0.01 ${seed}
fix 5 all langevin 300 300 0.01 123457



# Positive deformation

variable delta equal ${up}*${len0}
variable delta equal 0.02*${len0}
variable delta equal 0.02*6.27641021482539
variable deltaxy equal ${up}*xy
variable deltaxy equal 0.02*xy
variable deltaxz equal ${up}*xz
variable deltaxz equal 0.02*xz
variable deltayz equal ${up}*yz
variable deltayz equal 0.02*yz
if "${dir} == 1" then    "change_box all x delta 0 ${delta} xy delta ${deltaxy} xz delta ${deltaxz} remap units box"
if "${dir} == 2" then    "change_box all y delta 0 ${delta} yz delta ${deltayz} remap units box"
if "${dir} == 3" then    "change_box all z delta 0 ${delta} remap units box"
if "${dir} == 4" then    "change_box all yz delta ${delta} remap units box"
if "${dir} == 5" then    "change_box all xz delta ${delta} remap units box"
if "${dir} == 6" then    "change_box all xy delta ${delta} remap units box"
change_box all xy delta ${delta} remap units box
change_box all xy delta 0.125528204296508 remap units box
Changing box ...
  triclinic box = (-0.054739572 -0.04579762 -0.23756387) to (6.8584396 6.2306126 22.64301) with tilt (2.9625055 -0.88657934 0.26423941)

# Run MD

run ${nequil}
run 1000
Generated 0 of 6 mixed pair_coeff terms from geometric mixing rule
Neighbor list info ...
  update: every = 1 steps, delay = 0 steps, check = yes
  max neighbors/atom: 2000, page size: 100000
  master list distance cutoff = 6
  ghost atom cutoff = 6
  binsize = 3, bins = 4 3 8
  1 neighbor lists, perpetual/occasional/extra = 1 0 0
  (1) pair deepmd, perpetual
      attributes: full, newton on
      pair build: full/bin/atomonly
      stencil: full/bin/3d
      bin: standard
Per MPI rank memory allocation (min/avg/max) = 2.962 | 2.962 | 2.962 Mbytes
   Step          Temp          PotEng         Press         f_avp[1]       f_avp[2]       f_avp[3]       f_avp[4]       f_avp[5]       f_avp[6]   
         0   270.95964     -575.42967     -3352.2038      0              0              0              0              0              0            
       100   345.41583     -575.4736      -6794.5995     -3630.4955     -3847.7233      2895.671      -5031.7634      2111.2199      405.65169    
       200   269.34286     -575.59713     -8313.6061     -594.57158     -7671.4478     -2716.4949     -8149.7353      5297.0965     -1285.0513    
       300   263.37883     -575.07065      5077.5881     -4383.4993     -12118.026      2827.3736     -7588.7816      921.25897     -3552.9131    
       400   330.0372      -575.84568      1877.4536     -386.69052     -6886.1747      4810.5263     -9476.0635      2924.2763     -159.59182    
       500   287.66927     -575.41355      1060.8606     -3347.1368      1779.0056      6520.4512     -7930.0738      5319.9906     -16.408089    
       600   308.93816     -575.50665      9456.492       4129.3911      2761.8068      11613.628     -2839.9244      4961.838      -1048.0768    
       700   270.87582     -575.21994     -7764.6369     -5983.9092     -2627.0882      3824.2461     -7987.6355      5084.8425      880.78366    
       800   306.69709     -575.43652      2435.6019     -4572.1708     -5713.9523      2056.1597     -6334.3425      7425.2781     -282.15481    
       900   285.67894     -575.16836     -1188.1848     -5931.3923     -332.27754     -2514.9261     -6124.161       3702.2728     -1865.1261    
      1000   353.2905      -575.90093      3562.3708      167.87984      269.73949     -2025.1025     -6858.8927      957.97551     -1653.0686    
Loop time of 32.0985 on 1 procs for 1000 steps with 88 atoms

Performance: 2.692 ns/day, 8.916 hours/ns, 31.154 timesteps/s, 2.742 katom-step/s
101.9% CPU use with 1 MPI tasks x 1 OpenMP threads

MPI task timing breakdown:
Section |  min time  |  avg time  |  max time  |%varavg| %total
---------------------------------------------------------------
Pair    | 32.057     | 32.057     | 32.057     |   0.0 | 99.87
Neigh   | 0.0031105  | 0.0031105  | 0.0031105  |   0.0 |  0.01
Comm    | 0.012948   | 0.012948   | 0.012948   |   0.0 |  0.04
Output  | 0.00057644 | 0.00057644 | 0.00057644 |   0.0 |  0.00
Modify  | 0.018853   | 0.018853   | 0.018853   |   0.0 |  0.06
Other   |            | 0.006199   |            |       |  0.02

Nlocal:             88 ave          88 max          88 min
Histogram: 1 0 0 0 0 0 0 0 0 0
Nghost:           1025 ave        1025 max        1025 min
Histogram: 1 0 0 0 0 0 0 0 0 0
Neighs:              0 ave           0 max           0 min
Histogram: 1 0 0 0 0 0 0 0 0 0
FullNghs:         6894 ave        6894 max        6894 min
Histogram: 1 0 0 0 0 0 0 0 0 0

Total # of neighbors = 6894
Ave neighs/atom = 78.340909
Neighbor list builds = 4
Dangerous builds = 0
include potential.mod
# NOTE: This script can be modified for different pair styles
# See in.elastic for more info.

# we must undefine any fix ave/* fix before using reset_timestep
if "$(is_defined(fix,avp))" then "unfix avp"
unfix avp
reset_timestep 0


# Choose potential
# pair_style	sw
# pair_coeff * * Si.sw Si

pair_style	deepmd tob11_deepmd_compress.pb
pair_coeff	* * Ca H O Si

atom_modify sort 0 0.0
#kspace_style	ewald 1.0e-6# Setup neighbor style

#neighbor 2.0 bin
neigh_modify once no every 1 delay 0 check yes



# Setup output

fix avp all ave/time  ${nevery} ${nrepeat} ${nfreq} c_thermo_press mode vector
fix avp all ave/time  10 ${nrepeat} ${nfreq} c_thermo_press mode vector
fix avp all ave/time  10 10 ${nfreq} c_thermo_press mode vector
fix avp all ave/time  10 10 100 c_thermo_press mode vector

#min_style cg
#minimize 1.0e-15 1.0e-15 10000 10000 #设置能量最小化

thermo		${nthermo}
thermo		100
thermo_style custom step temp pe press f_avp[1] f_avp[2] f_avp[3] f_avp[4] f_avp[5] f_avp[6]
WARNING: New thermo_style command, previous thermo_modify settings will be lost (src/output.cpp:903)
thermo_modify norm no

# Setup MD

timestep ${timestep}
timestep 0.001
fix 4 all nve
if "${thermostat} == 1" then    "fix 5 all langevin ${temp} ${temp} ${tdamp} ${seed}"
fix 5 all langevin ${temp} ${temp} ${tdamp} ${seed}
fix 5 all langevin 300 ${temp} ${tdamp} ${seed}
fix 5 all langevin 300 300 ${tdamp} ${seed}
fix 5 all langevin 300 300 0.01 ${seed}
fix 5 all langevin 300 300 0.01 123457


run ${nrun}
run 300
Generated 0 of 6 mixed pair_coeff terms from geometric mixing rule
Per MPI rank memory allocation (min/avg/max) = 2.962 | 2.962 | 2.962 Mbytes
   Step          Temp          PotEng         Press         f_avp[1]       f_avp[2]       f_avp[3]       f_avp[4]       f_avp[5]       f_avp[6]   
         0   353.2905      -575.90093      3562.3708      0              0              0              0              0              0            
       100   334.21983     -575.59532     -6459.0219     -10503.547     -2028.2115      3750.4716     -4917.9779      7394.1291     -1206.1834    
       200   260.7003      -576.08694     -11034.873     -5908.9546     -6015.7085     -4205.2387     -7098.2288      5525.7366     -2684.0749    
       300   258.67272     -575.41476      376.33168     -9810.4652     -11377.783      2182.8525     -6886.6495      3478.317      -5183.1907    
Loop time of 9.98172 on 1 procs for 300 steps with 88 atoms

Performance: 2.597 ns/day, 9.242 hours/ns, 30.055 timesteps/s, 2.645 katom-step/s
101.4% CPU use with 1 MPI tasks x 1 OpenMP threads

MPI task timing breakdown:
Section |  min time  |  avg time  |  max time  |%varavg| %total
---------------------------------------------------------------
Pair    | 9.969      | 9.969      | 9.969      |   0.0 | 99.87
Neigh   | 0.00081836 | 0.00081836 | 0.00081836 |   0.0 |  0.01
Comm    | 0.0039759  | 0.0039759  | 0.0039759  |   0.0 |  0.04
Output  | 0.00020236 | 0.00020236 | 0.00020236 |   0.0 |  0.00
Modify  | 0.0056887  | 0.0056887  | 0.0056887  |   0.0 |  0.06
Other   |            | 0.001993   |            |       |  0.02

Nlocal:             88 ave          88 max          88 min
Histogram: 1 0 0 0 0 0 0 0 0 0
Nghost:           1013 ave        1013 max        1013 min
Histogram: 1 0 0 0 0 0 0 0 0 0
Neighs:              0 ave           0 max           0 min
Histogram: 1 0 0 0 0 0 0 0 0 0
FullNghs:         6932 ave        6932 max        6932 min
Histogram: 1 0 0 0 0 0 0 0 0 0

Total # of neighbors = 6932
Ave neighs/atom = 78.772727
Neighbor list builds = 1
Dangerous builds = 0

# Obtain new stress tensor

variable pxx1 equal f_avp[1]
variable pyy1 equal f_avp[2]
variable pzz1 equal f_avp[3]
variable pxy1 equal f_avp[4]
variable pxz1 equal f_avp[5]
variable pyz1 equal f_avp[6]

# Compute elastic constant from pressure tensor

variable C1pos equal ${d1}
variable C1pos equal 8.49451190628218
variable C2pos equal ${d2}
variable C2pos equal -24.4788972205755
variable C3pos equal ${d3}
variable C3pos equal -16.8470326359339
variable C4pos equal ${d4}
variable C4pos equal 7.90906483486214
variable C5pos equal ${d5}
variable C5pos equal -12.5120452417449
variable C6pos equal ${d6}
variable C6pos equal 27.034213615288

# Combine positive and negative

variable C1${dir} equal 0.5*(${C1neg}+${C1pos})
variable C16 equal 0.5*(${C1neg}+${C1pos})
variable C16 equal 0.5*(-2.69666781393929+${C1pos})
variable C16 equal 0.5*(-2.69666781393929+8.49451190628218)
variable C2${dir} equal 0.5*(${C2neg}+${C2pos})
variable C26 equal 0.5*(${C2neg}+${C2pos})
variable C26 equal 0.5*(20.8640161954585+${C2pos})
variable C26 equal 0.5*(20.8640161954585+-24.4788972205755)
variable C3${dir} equal 0.5*(${C3neg}+${C3pos})
variable C36 equal 0.5*(${C3neg}+${C3pos})
variable C36 equal 0.5*(51.6200867342376+${C3pos})
variable C36 equal 0.5*(51.6200867342376+-16.8470326359339)
variable C4${dir} equal 0.5*(${C4neg}+${C4pos})
variable C46 equal 0.5*(${C4neg}+${C4pos})
variable C46 equal 0.5*(-11.2866757712347+${C4pos})
variable C46 equal 0.5*(-11.2866757712347+7.90906483486214)
variable C5${dir} equal 0.5*(${C5neg}+${C5pos})
variable C56 equal 0.5*(${C5neg}+${C5pos})
variable C56 equal 0.5*(7.62162421647126+${C5pos})
variable C56 equal 0.5*(7.62162421647126+-12.5120452417449)
variable C6${dir} equal 0.5*(${C6neg}+${C6pos})
variable C66 equal 0.5*(${C6neg}+${C6pos})
variable C66 equal 0.5*(39.8300930415317+${C6pos})
variable C66 equal 0.5*(39.8300930415317+27.034213615288)

# Delete dir to make sure it is not reused

variable dir delete

# Output final values

variable C11all equal ${C11}
variable C11all equal 97.5955007478942
variable C22all equal ${C22}
variable C22all equal 107.403775734561
variable C33all equal ${C33}
variable C33all equal 103.123606182196

variable C12all equal 0.5*(${C12}+${C21})
variable C12all equal 0.5*(33.7098483279807+${C21})
variable C12all equal 0.5*(33.7098483279807+50.1347143383313)
variable C13all equal 0.5*(${C13}+${C31})
variable C13all equal 0.5*(18.3614872710209+${C31})
variable C13all equal 0.5*(18.3614872710209+52.6628633254421)
variable C23all equal 0.5*(${C23}+${C32})
variable C23all equal 0.5*(31.5544404120455+${C32})
variable C23all equal 0.5*(31.5544404120455+31.1423800017896)

variable C44all equal ${C44}
variable C44all equal 28.1413740068386
variable C55all equal ${C55}
variable C55all equal 18.6577978894868
variable C66all equal ${C66}
variable C66all equal 33.4321533284098

variable C14all equal 0.5*(${C14}+${C41})
variable C14all equal 0.5*(13.0840718765636+${C41})
variable C14all equal 0.5*(13.0840718765636+4.83177503181461)
variable C15all equal 0.5*(${C15}+${C51})
variable C15all equal 0.5*(0.194181556177525+${C51})
variable C15all equal 0.5*(0.194181556177525+-0.940582449347225)
variable C16all equal 0.5*(${C16}+${C61})
variable C16all equal 0.5*(2.89892204617144+${C61})
variable C16all equal 0.5*(2.89892204617144+-10.7261209811478)

variable C24all equal 0.5*(${C24}+${C42})
variable C24all equal 0.5*(16.2195698750983+${C42})
variable C24all equal 0.5*(16.2195698750983+1.6161478152968)
variable C25all equal 0.5*(${C25}+${C52})
variable C25all equal 0.5*(-4.13095470409325+${C52})
variable C25all equal 0.5*(-4.13095470409325+-0.6909381791085)
variable C26all equal 0.5*(${C26}+${C62})
variable C26all equal 0.5*(-1.8074405125585+${C62})
variable C26all equal 0.5*(-1.8074405125585+-18.2126849302954)

variable C34all equal 0.5*(${C34}+${C43})
variable C34all equal 0.5*(15.7664207545639+${C43})
variable C34all equal 0.5*(15.7664207545639+-3.8275696536231)
variable C35all equal 0.5*(${C35}+${C53})
variable C35all equal 0.5*(-7.7036540285333+${C53})
variable C35all equal 0.5*(-7.7036540285333+-2.17836415918874)
variable C36all equal 0.5*(${C36}+${C63})
variable C36all equal 0.5*(17.3865270491519+${C63})
variable C36all equal 0.5*(17.3865270491519+-12.5307971864441)

variable C45all equal 0.5*(${C45}+${C54})
variable C45all equal 0.5*(-5.98698370040987+${C54})
variable C45all equal 0.5*(-5.98698370040987+-6.31825344432479)
variable C46all equal 0.5*(${C46}+${C64})
variable C46all equal 0.5*(-1.68880546818628+${C64})
variable C46all equal 0.5*(-1.68880546818628+-2.69471659442261)
variable C56all equal 0.5*(${C56}+${C65})
variable C56all equal 0.5*(-2.44521051263682+${C65})
variable C56all equal 0.5*(-2.44521051263682+2.77413235335788)


print "========================================="
=========================================
print "Components of the Elastic Constant Tensor"
Components of the Elastic Constant Tensor
print "========================================="
=========================================

print "Elastic Constant C11all = ${C11all} ${cunits}"
Elastic Constant C11all = 97.5955007478942 GPa
print "Elastic Constant C22all = ${C22all} ${cunits}"
Elastic Constant C22all = 107.403775734561 GPa
print "Elastic Constant C33all = ${C33all} ${cunits}"
Elastic Constant C33all = 103.123606182196 GPa

print "Elastic Constant C12all = ${C12all} ${cunits}"
Elastic Constant C12all = 41.922281333156 GPa
print "Elastic Constant C13all = ${C13all} ${cunits}"
Elastic Constant C13all = 35.5121752982315 GPa
print "Elastic Constant C23all = ${C23all} ${cunits}"
Elastic Constant C23all = 31.3484102069175 GPa

print "Elastic Constant C44all = ${C44all} ${cunits}"
Elastic Constant C44all = 28.1413740068386 GPa
print "Elastic Constant C55all = ${C55all} ${cunits}"
Elastic Constant C55all = 18.6577978894868 GPa
print "Elastic Constant C66all = ${C66all} ${cunits}"
Elastic Constant C66all = 33.4321533284098 GPa

print "Elastic Constant C14all = ${C14all} ${cunits}"
Elastic Constant C14all = 8.95792345418911 GPa
print "Elastic Constant C15all = ${C15all} ${cunits}"
Elastic Constant C15all = -0.37320044658485 GPa
print "Elastic Constant C16all = ${C16all} ${cunits}"
Elastic Constant C16all = -3.91359946748818 GPa

print "Elastic Constant C24all = ${C24all} ${cunits}"
Elastic Constant C24all = 8.91785884519755 GPa
print "Elastic Constant C25all = ${C25all} ${cunits}"
Elastic Constant C25all = -2.41094644160088 GPa
print "Elastic Constant C26all = ${C26all} ${cunits}"
Elastic Constant C26all = -10.0100627214269 GPa

print "Elastic Constant C34all = ${C34all} ${cunits}"
Elastic Constant C34all = 5.9694255504704 GPa
print "Elastic Constant C35all = ${C35all} ${cunits}"
Elastic Constant C35all = -4.94100909386102 GPa
print "Elastic Constant C36all = ${C36all} ${cunits}"
Elastic Constant C36all = 2.4278649313539 GPa

print "Elastic Constant C45all = ${C45all} ${cunits}"
Elastic Constant C45all = -6.15261857236733 GPa
print "Elastic Constant C46all = ${C46all} ${cunits}"
Elastic Constant C46all = -2.19176103130444 GPa
print "Elastic Constant C56all = ${C56all} ${cunits}"
Elastic Constant C56all = 0.16446092036053 GPa

print " "
 
print "Cij tensor matrix"
Cij tensor matrix
print " "
 
print "${C11all}  ${C12all}  ${C13all}  ${C14all}  ${C15all}  ${C16all}"
97.5955007478942  41.922281333156  35.5121752982315  8.95792345418911  -0.37320044658485  -3.91359946748818
print "${C12all}  ${C22all}  ${C23all}  ${C24all}  ${C25all}  ${C26all}"
41.922281333156  107.403775734561  31.3484102069175  8.91785884519755  -2.41094644160088  -10.0100627214269
print "${C13all}  ${C23all}  ${C33all}  ${C34all}  ${C35all}  ${C36all}"
35.5121752982315  31.3484102069175  103.123606182196  5.9694255504704  -4.94100909386102  2.4278649313539
print "${C14all}  ${C24all}  ${C34all}  ${C44all}  ${C45all}  ${C46all}"
8.95792345418911  8.91785884519755  5.9694255504704  28.1413740068386  -6.15261857236733  -2.19176103130444
print "${C15all}  ${C25all}  ${C35all}  ${C45all}  ${C55all}  ${C56all}"
-0.37320044658485  -2.41094644160088  -4.94100909386102  -6.15261857236733  18.6577978894868  0.16446092036053
print "${C16all}  ${C26all}  ${C36all}  ${C46all}  ${C56all}  ${C66all}"
-3.91359946748818  -10.0100627214269  2.4278649313539  -2.19176103130444  0.16446092036053  33.4321533284098

print "${C11all}  ${C12all}  ${C13all}  ${C14all}  ${C15all}  ${C16all}" file Cij.dat screen no
print "${C12all}  ${C22all}  ${C23all}  ${C24all}  ${C25all}  ${C26all}" append Cij.dat screen no
print "${C13all}  ${C23all}  ${C33all}  ${C34all}  ${C35all}  ${C36all}" append Cij.dat screen no
print "${C14all}  ${C24all}  ${C34all}  ${C44all}  ${C45all}  ${C46all}" append Cij.dat screen no
print "${C15all}  ${C25all}  ${C35all}  ${C45all}  ${C55all}  ${C56all}" append Cij.dat screen no
print "${C16all}  ${C26all}  ${C36all}  ${C46all}  ${C56all}  ${C66all}" append Cij.dat screen no

write_restart restart2
System init for write_restart ...
Generated 0 of 6 mixed pair_coeff terms from geometric mixing rule
Total wall time: 0:16:33
