LAMMPS (29 Sep 2021 - Update 2)
OMP_NUM_THREADS environment is not set. Defaulting to 1 thread. (src/comm.cpp:98)
  using 1 OpenMP thread(s) per MPI task

units	metal
atom_style atomic
boundary    p p p
newton off
#neighbor 1.0 bin
neigh_modify delay 0 every 1 check yes
#neigh_modify once no every 1 delay 0 check yes

box tilt large
read_data tob11_ref_deepmd.data
Reading data file ...
  triclinic box = (0.0000000 0.0000000 0.0000000) to (6.8037000 6.1848150 22.405446) with tilt (2.6646871 0.29402869 -0.26981789)
  1 by 1 by 1 MPI processor grid
  reading atoms ...
  88 atoms
  read_data CPU = 0.000 seconds

pair_style	nequip
pair_coeff	* * tob11_l3-deployed.pth Ca H O Si
mass            1 40.079800
mass            4 28.08500
mass            3 15.9994
mass            2 1.00794


#kspace_style    ewald 1.0e-6

velocity all create 300 4928459 rot yes dist gaussian #温度初始化
timestep 0.001

thermo 1
#thermo_style  custom step temp press etotal lx ly lz xy xz yz pxx pyy pzz

min_style cg
minimize 1.0e-15 1.0e-15 100000 100000
Neighbor list info ...
  update every 1 steps, delay 0 steps, check yes
  max neighbors/atom: 2000, page size: 100000
  master list distance cutoff = 6
  ghost atom cutoff = 6
  binsize = 3, bins = 4 3 8
  1 neighbor lists, perpetual/occasional/extra = 1 0 0
  (1) pair nequip, perpetual
      attributes: full, newton off
      pair build: full/bin/atomonly
      stencil: full/bin/3d
      bin: standard
Per MPI rank memory allocation (min/avg/max) = 4.213 | 4.213 | 4.213 Mbytes
Step Temp E_pair E_mol TotEng Press 
       0          300   -571.49316            0   -568.11947    20949.268 
       1          300   -573.45215            0   -570.07846    16266.564 
       2          300   -574.26678            0   -570.89309    11246.741 
       3          300   -574.87927            0   -571.50558    2771.7364 
       4          300   -575.37866            0   -572.00497     5903.346 
       5          300   -575.86804            0   -572.49435    11071.047 
       6          300   -576.14594            0   -572.77225    12970.044 
       7          300   -576.39282            0   -573.01913    13524.877 
       8          300   -576.56543            0   -573.19174    11188.979 
       9          300   -576.76227            0   -573.38858    9370.9578 
      10          300   -576.91095            0   -573.53726    10179.949 
      11          300   -577.06134            0   -573.68765    12413.802 
      12          300   -577.15375            0   -573.78006    13255.163 
      13          300   -577.22742            0   -573.85373    13572.691 
      14          300   -577.31079            0    -573.9371    12534.938 
      15          300   -577.36017            0   -573.98648    11319.066 
      16          300   -577.40955            0   -574.03586    10191.967 
      17          300   -577.44379            0    -574.0701    9673.6769 
      18          300   -577.47717            0   -574.10348    9983.5904 
      19          300   -577.50879            0    -574.1351    10598.275 
      20          300   -577.53632            0   -574.16263    10833.658 
      21          300    -577.5658            0   -574.19211    11726.748 
      22          300   -577.58789            0    -574.2142    11627.651 
      23          300   -577.60431            0   -574.23062    10433.855 
      24          300   -577.61761            0   -574.24392     10218.39 
      25          300    -577.6344            0   -574.26071     10605.05 
      26          300   -577.64386            0   -574.27017     10833.95 
      27          300   -577.65289            0    -574.2792    11346.277 
      28          300   -577.66241            0   -574.28872    11826.406 
      29          300   -577.67334            0   -574.29965    11333.318 
      30          300   -577.68494            0   -574.31125    10527.068 
      31          300   -577.69263            0   -574.31894    11048.141 
      32          300    -577.7027            0   -574.32901    12101.789 
      33          300   -577.70898            0   -574.33529    12268.413 
      34          300   -577.71564            0   -574.34195    12029.568 
      35          300   -577.72198            0    -574.3483    11484.799 
      36          300   -577.72815            0   -574.35446    11107.542 
      37          300   -577.73572            0   -574.36203    11615.429 
      38          300    -577.7417            0   -574.36801    12792.385 
      39          300    -577.7478            0   -574.37411    13443.807 
      40          300   -577.75275            0   -574.37906    13057.576 
      41          300   -577.75873            0   -574.38504    12256.015 
      42          300   -577.76196            0   -574.38827     11969.24 
      43          300   -577.76849            0    -574.3948    12181.599 
      44          300   -577.77185            0   -574.39816    12498.865 
      45          300   -577.77594            0   -574.40225    12572.919 
      46          300   -577.77948            0   -574.40579    12401.038 
      47          300   -577.78302            0   -574.40933    11842.365 
      48          300   -577.78619            0    -574.4125    11491.011 
      49          300   -577.78894            0   -574.41525    11929.026 
      50          300   -577.79254            0   -574.41885    12218.434 
      51          300   -577.79474            0   -574.42105    11995.343 
      52          300   -577.79779            0    -574.4241    11554.723 
      53          300   -577.79993            0   -574.42624    11338.265 
      54          300   -577.80267            0   -574.42898    11262.598 
      55          300   -577.80499            0    -574.4313    11481.939 
      56          300   -577.80829            0    -574.4346     11762.71 
      57          300   -577.81073            0   -574.43704    11659.776 
      58          300   -577.81305            0   -574.43936     11368.96 
      59          300   -577.81586            0   -574.44217    11053.743 
      60          300    -577.8183            0   -574.44461    11114.655 
      61          300   -577.82098            0   -574.44729     11455.69 
      62          300   -577.82312            0   -574.44943     11567.25 
      63          300   -577.82574            0   -574.45205     11420.56 
      64          300   -577.82733            0   -574.45364    11394.068 
      65          300   -577.82947            0   -574.45578     11342.59 
      66          300   -577.83087            0   -574.45718    11214.768 
      67          300   -577.83221            0   -574.45852    11422.628 
      68          300   -577.83398            0   -574.46029    11783.038 
      69          300   -577.83496            0   -574.46127    11631.016 
      70          300   -577.83655            0   -574.46286    11380.563 
      71          300   -577.83783            0   -574.46414    11320.468 
      72          300   -577.83917            0   -574.46548    11369.267 
      73          300   -577.84064            0   -574.46695    11527.875 
      74          300    -577.8421            0   -574.46841    11499.741 
      75          300   -577.84344            0   -574.46976    11298.844 
      76          300   -577.84467            0   -574.47098    11142.934 
      77          300   -577.84564            0   -574.47195    11060.428 
      78          300   -577.84668            0   -574.47299     11112.42 
      79          300   -577.84839            0    -574.4747    11231.901 
      80          300   -577.84967            0   -574.47598    11176.522 
      81          300   -577.85089            0    -574.4772    10911.558 
      82          300   -577.85229            0   -574.47861    10750.691 
      83          300   -577.85345            0   -574.47976    10669.781 
      84          300   -577.85486            0   -574.48117    10780.081 
      85          300   -577.85632            0   -574.48263    10918.468 
      86          300   -577.85803            0   -574.48434    10754.563 
      87          300   -577.85901            0   -574.48532    10753.588 
      88          300   -577.86029            0    -574.4866    10841.151 
      89          300   -577.86115            0   -574.48746    10883.899 
      90          300   -577.86243            0   -574.48874    10724.165 
      91          300   -577.86346            0   -574.48977    10629.617 
      92          300   -577.86432            0   -574.49063    10724.453 
      93          300   -577.86493            0   -574.49124    10789.589 
      94          300   -577.86572            0   -574.49203     10827.49 
      95          300   -577.86658            0   -574.49289    10789.533 
      96          300   -577.86707            0   -574.49338    10689.642 
      97          300   -577.86774            0   -574.49405     10632.48 
      98          300   -577.86829            0    -574.4946     10791.52 
      99          300   -577.86877            0   -574.49508    10985.264 
     100          300   -577.86914            0   -574.49545    10928.451 
     101          300   -577.86981            0   -574.49612    10765.559 
     102          300   -577.87024            0   -574.49655    10809.938 
     103          300   -577.87079            0    -574.4971    10935.651 
     104          300   -577.87103            0   -574.49734    10981.903 
     105          300   -577.87152            0   -574.49783     11012.73 
     106          300   -577.87195            0   -574.49826    10920.534 
     107          300    -577.8725            0   -574.49881    10859.649 
     108          300   -577.87317            0   -574.49948     10995.43 
     109          300   -577.87366            0   -574.49997     11134.17 
     110          300   -577.87408            0   -574.50039    11155.989 
     111          300   -577.87451            0   -574.50082    11178.434 
     112          300   -577.87488            0   -574.50119    11071.691 
     113          300   -577.87537            0   -574.50168    11105.151 
     114          300   -577.87579            0    -574.5021    11271.283 
     115          300   -577.87616            0   -574.50247    11327.005 
     116          300   -577.87653            0   -574.50284    11314.669 
     117          300   -577.87677            0   -574.50308    11259.244 
     118          300   -577.87714            0   -574.50345    11310.258 
     119          300    -577.8772            0   -574.50351    11380.114 
     120          300   -577.87762            0   -574.50393    11366.907 
     121          300   -577.87775            0   -574.50406    11331.242 
     122          300   -577.87817            0   -574.50448    11381.058 
     123          300   -577.87848            0   -574.50479    11441.577 
     124          300   -577.87885            0   -574.50516    11460.379 
     125          300   -577.87952            0   -574.50583    11507.947 
     126          300   -577.87994            0   -574.50625    11512.964 
     127          300   -577.88068            0   -574.50699    11433.359 
     128          300   -577.88141            0   -574.50772    11498.873 
     129          300   -577.88232            0   -574.50863    11754.818 
     130          300    -577.8833            0   -574.50961    11718.054 
     131          300   -577.88422            0   -574.51053    11575.436 
     132          300   -577.88519            0    -574.5115    11541.247 
     133          300   -577.88629            0    -574.5126     11647.45 
     134          300    -577.8877            0   -574.51401    11844.513 
     135          300   -577.88861            0   -574.51492    11958.356 
     136          300   -577.89032            0   -574.51663    11773.909 
     137          300   -577.89197            0   -574.51828    11715.959 
     138          300   -577.89447            0   -574.52078    11987.574 
     139          300   -577.89685            0   -574.52316    12104.137 
     140          300   -577.89911            0   -574.52542    12062.768 
     141          300   -577.90131            0   -574.52762    12101.932 
     142          300   -577.90387            0   -574.53018    12008.628 
     143          300   -577.90631            0   -574.53262    11983.699 
     144          300   -577.90881            0   -574.53512    12227.652 
     145          300   -577.91125            0   -574.53757    12302.064 
     146          300   -577.91357            0   -574.53988    12225.843 
     147          300    -577.9165            0   -574.54281    12134.056 
     148          300   -577.91956            0   -574.54587    12026.971 
     149          300   -577.92273            0   -574.54904    12023.079 
     150          300   -577.92444            0   -574.55075     12295.59 
     151          300   -577.92694            0   -574.55325     12378.38 
     152          300   -577.93018            0   -574.55649    12223.103 
     153          300   -577.93304            0   -574.55935    12117.165 
     154          300   -577.93567            0   -574.56198    12151.849 
     155          300   -577.93829            0    -574.5646    12086.286 
     156          300   -577.94208            0   -574.56839    12106.536 
     157          300   -577.94513            0   -574.57144    12312.363 
     158          300   -577.94806            0   -574.57437    12048.181 
     159          300   -577.95044            0   -574.57675    11939.976 
     160          300   -577.95392            0   -574.58023    11959.238 
     161          300   -577.95624            0   -574.58255    11938.207 
     162          300   -577.95886            0   -574.58517    11968.464 
     163          300   -577.96045            0   -574.58676    11949.295 
     164          300   -577.96252            0   -574.58883    11815.136 
     165          300   -577.96423            0   -574.59054    11790.458 
     166          300   -577.96576            0   -574.59207    11788.969 
     167          300   -577.96747            0   -574.59378    11670.263 
     168          300   -577.96875            0   -574.59506    11628.618 
     169          300   -577.97034            0   -574.59665    11554.029 
     170          300   -577.97156            0   -574.59787    11621.605 
     171          300   -577.97321            0   -574.59952    11488.924 
     172          300   -577.97443            0   -574.60074    11401.916 
     173          300   -577.97559            0    -574.6019    11337.018 
     174          300   -577.97675            0   -574.60306    11264.855 
     175          300   -577.97809            0    -574.6044    11207.325 
     176          300   -577.97888            0   -574.60519    11270.634 
     177          300   -577.97968            0   -574.60599    11280.825 
     178          300   -577.98102            0   -574.60733    11185.498 
     179          300   -577.98169            0     -574.608    11128.588 
     180          300   -577.98236            0   -574.60867    11121.572 
     181          300   -577.98297            0   -574.60928    11133.638 
     182          300    -577.9837            0   -574.61001    11135.721 
     183          300   -577.98444            0   -574.61075    11101.722 
     184          300   -577.98499            0    -574.6113    11052.128 
     185          300   -577.98553            0   -574.61184    11051.025 
     186          300   -577.98596            0   -574.61227    11087.147 
     187          300   -577.98633            0   -574.61264    11043.259 
     188          300   -577.98694            0   -574.61325    11033.141 
     189          300   -577.98724            0   -574.61355    11055.498 
     190          300   -577.98779            0    -574.6141    10942.755 
     191          300   -577.98816            0   -574.61447    10924.295 
     192          300   -577.98859            0    -574.6149    11044.089 
     193          300   -577.98889            0    -574.6152    11032.474 
     194          300   -577.98914            0   -574.61545     11005.79 
     195          300   -577.98944            0   -574.61575    10999.286 
     196          300   -577.98962            0   -574.61593    10958.923 
     197          300   -577.98987            0   -574.61618    10967.148 
     198          300   -577.99017            0   -574.61648    11044.229 
     199          300   -577.99036            0   -574.61667    11017.112 
     200          300   -577.99042            0   -574.61673    11021.175 
     201          300   -577.99078            0   -574.61709    10989.114 
     202          300   -577.99115            0   -574.61746    10998.752 
     203          300   -577.99115            0   -574.61746    11021.074 
Loop time of 229.514 on 1 procs for 203 steps with 88 atoms

99.9% CPU use with 1 MPI tasks x 1 OpenMP threads

Minimization stats:
  Stopping criterion = energy tolerance
  Energy initial, next-to-last, final = 
       -571.4931640625  -577.991149902344  -577.991149902344
  Force two-norm initial, final = 16.218635 0.077256366
  Force max component initial, final = 3.7823689 0.022134231
  Final line search alpha, max atom move = 0.50000000 0.011067116
  Iterations, force evaluations = 203 408

MPI task timing breakdown:
Section |  min time  |  avg time  |  max time  |%varavg| %total
---------------------------------------------------------------
Pair    | 229.5      | 229.5      | 229.5      |   0.0 | 99.99
Neigh   | 0.0023081  | 0.0023081  | 0.0023081  |   0.0 |  0.00
Comm    | 0.0023782  | 0.0023782  | 0.0023782  |   0.0 |  0.00
Output  | 0.006464   | 0.006464   | 0.006464   |   0.0 |  0.00
Modify  | 0          | 0          | 0          |   0.0 |  0.00
Other   |            | 0.003549   |            |       |  0.00

Nlocal:        88.0000 ave          88 max          88 min
Histogram: 1 0 0 0 0 0 0 0 0 0
Nghost:        1052.00 ave        1052 max        1052 min
Histogram: 1 0 0 0 0 0 0 0 0 0
Neighs:         0.00000 ave           0 max           0 min
Histogram: 1 0 0 0 0 0 0 0 0 0
FullNghs:      7260.00 ave        7260 max        7260 min
Histogram: 1 0 0 0 0 0 0 0 0 0

Total # of neighbors = 7260
Ave neighs/atom = 82.500000
Neighbor list builds = 3
Dangerous builds = 0


write_dump all custom output-tob11_nequip.dump id type x y z fx fy fz
Total wall time: 0:04:04
