ITEM: TIMESTEP
203
ITEM: NUMBER OF ATOMS
88
ITEM: BOX BOUNDS xy xz yz pp pp pp
0.0000000000000000e+00 9.7624157930000006e+00 2.6646871069999998e+00
-2.6981789499999997e-01 6.1848149740000000e+00 2.9402868599999998e-01
0.0000000000000000e+00 2.2405446356999999e+01 -2.6981789499999997e-01
ITEM: ATOMS id type x y z fx fy fz
1 4 8.57634 4.55479 9.80734 5.59409e-05 0.00448747 0.00660473
2 4 8.80801 4.39703 12.9995 -0.00413141 -0.00155774 -0.0181892
3 4 3.09853 5.85449 3.73223 0.00742537 -0.0151921 -0.00897963
4 4 3.68112 5.71345 19.0196 -0.0044302 -0.00208476 0.00160826
5 4 5.05471 4.58545 1.85455 -0.00198892 -0.002072 0.00821577
6 4 5.5538 2.24047 3.78746 -0.00522023 0.0117344 -0.00450629
7 4 5.55715 4.34328 21.046 0.00253716 0.000717078 -0.00970838
8 4 6.09603 2.09811 19.0971 0.00229508 0.0015816 -0.00259541
9 4 6.63728 5.88369 7.95578 -0.00309292 -0.000429192 -0.00118163
10 4 6.90681 5.74047 14.9423 -0.00454315 0.00593019 0.00116894
11 4 2.24503 2.26823 7.81035 0.00504639 -0.00957823 -0.00433689
12 4 2.50131 2.11295 14.9567 -0.00227275 0.00225705 -0.0103986
13 3 5.48322 0.00703747 15.8768 0.00432963 -0.000335194 0.00394634
14 3 8.6748 4.35989 11.3988 -0.00188284 -0.00415807 0.0146742
15 3 8.94302 4.87603 4.58521 0.00127881 -2.39984e-05 -0.000175196
16 3 9.08965 5.37262 22.2853 -0.00295345 0.00145834 -0.00193232
17 3 2.68931 4.74942 18.1849 -0.000408789 0.0077335 0.00126913
18 3 3.20624 3.17744 6.88357 0.00655557 0.000118685 -0.00154324
19 3 3.06132 5.43002 9.2668 -0.00514436 -0.00360174 0.00652927
20 3 3.55527 5.13279 2.26453 -0.00615173 0.00304533 0.00229062
21 3 3.30807 5.24249 13.5279 -0.00485804 -0.00872434 -0.00520105
22 3 3.49073 3.02064 15.8701 -0.00450214 0.00107699 -0.00140378
23 3 4.08016 1.19063 0.702381 0.00188929 0.0012637 0.000627095
24 3 4.23881 1.70134 4.5363 0.00138962 0.00147685 -0.00274935
25 3 4.20137 4.98998 20.4365 0.00243453 0.00181313 -3.95142e-05
26 3 3.39923 1.48492 11.1026 0.00629454 -0.0111884 0.0221342
27 3 4.7883 1.64189 18.2731 -0.000357553 0.000530605 0.00350277
28 3 5.09633 4.58613 0.237987 -0.00280835 0.00228763 -0.00138938
29 3 5.21185 0.172816 7.0308 -0.00674148 0.00178803 0.00553142
30 3 5.16511 3.05527 2.37072 0.00379141 -0.0114079 0.00140306
31 3 5.67003 4.89746 7.1159 0.00102002 0.00581226 0.00196611
32 3 5.25962 4.40394 12.0472 0.0036665 0.00775859 -0.00340437
33 3 5.47444 2.72294 9.54903 -0.000216077 0.00279112 0.00500767
34 3 5.71893 2.78661 20.5848 -0.000739678 -0.000442589 -0.00491998
35 3 5.70309 2.11787 13.3963 0.000963752 -0.00102983 -0.000191718
36 3 6.45297 3.17934 4.75092 0.00152252 -0.0028055 0.00256999
37 3 5.95502 4.70854 15.7288 0.000643126 -0.0022264 0.0057468
38 3 6.28394 5.48258 2.43661 0.00915638 -0.00235552 0.00895919
39 3 6.42856 0.982689 3.16612 0.00258142 0.00262367 -0.00114194
40 3 6.95471 0.793293 19.6197 0.00010847 0.00191506 -0.00218553
41 3 7.00354 3.09105 18.1985 -0.00273519 0.00546485 0.000330972
42 3 6.86285 5.22108 20.5545 -0.00120742 0.00384454 -0.00442826
43 3 7.15153 5.26258 9.41979 -0.00214557 0.000882101 -0.00133229
44 3 7.36889 2.03175 0.0426002 -0.00513953 0.00213754 -0.00328543
45 3 0.973999 1.72424 6.98339 -0.00675333 -0.0063728 -0.00524713
46 3 7.4522 5.16692 13.4796 0.00719792 -0.00635853 -0.00362527
47 3 1.24825 1.57629 15.8152 0.000508893 0.00362782 0.00241931
48 3 1.71738 0.073121 4.62895 -0.00201581 -0.0011357 -0.00301514
49 3 7.28619 1.24253 11.1363 0.00122047 -0.00671565 0.00099026
50 3 1.77611 3.08515 9.15394 -0.00445695 -0.00310914 0.0023444
51 3 1.91454 2.7297 2.36995 0.000352947 -0.00340374 0.000586678
52 3 2.27208 -0.0149128 18.123 0.00339688 0.00252411 -0.00478937
53 3 2.0038 2.88617 13.5805 0.00397281 -0.00100172 0.0165544
54 3 2.74175 2.2133 20.5232 0.00274988 0.00171273 -0.000957313
55 3 3.08981 1.00302 8.49506 0.00308235 -0.00441249 0.00223169
56 3 3.38449 0.84289 14.3361 -0.00410425 0.00197931 0.0043963
57 2 2.3086 5.31316 0.751929 -0.00446975 0.0035333 -0.000184637
58 2 2.35768 3.56944 2.14141 0.00132017 -0.00209243 0.00119385
59 2 2.98312 5.11455 21.6201 -0.00211672 -0.000682545 0.00221721
60 2 3.5993 1.9141 20.8783 -0.00253767 0.00514323 -0.00216578
61 2 3.23661 1.13285 10.1848 0.000156448 0.00320516 -0.00738367
62 2 4.42807 1.94017 1.24754 -0.0014329 -0.00531904 0.00280173
63 2 4.13246 5.02296 12.9594 -0.00208737 0.00204862 -0.00335902
64 2 4.87475 0.787351 0.289978 -0.00734072 0.00351064 -0.000267711
65 2 4.87763 1.58024 13.4021 0.00645442 -0.00218091 -0.00317383
66 2 3.68912 0.716261 11.624 -0.00492235 0.00752169 -0.00973677
67 2 4.74894 2.34361 10.1079 0.00202392 0.00429852 -0.00530647
68 2 6.09264 4.80891 12.39 0.000411817 0.000712558 0.00388892
69 2 5.32366 3.49814 12.4726 -0.000870846 0.00811545 -0.00943574
70 2 5.55392 3.64815 9.8656 0.00364242 0.00326015 -0.0069115
71 2 6.34972 1.64885 12.8099 0.0105841 -0.00318915 0.00978549
72 2 6.93253 2.16657 21.9256 0.00127105 0.00130774 -0.000787778
73 2 7.09119 1.08729 0.0899251 0.00231597 3.16098e-05 1.90666e-05
74 2 7.65191 5.17515 21.1483 0.00352969 0.000125311 0.00585242
75 2 0.588175 0.00216434 9.89579 -0.00208001 -0.000554175 -0.000364989
76 2 1.32184 2.50018 1.61501 0.00156328 -0.00324006 0.00140663
77 2 6.87602 1.91194 10.5319 -0.00846097 -0.0049519 0.0110574
78 2 1.41475 1.53287 11.2874 0.00279707 -0.00653531 -0.00578956
79 2 2.08029 1.96793 21.2225 -0.00590943 0.0035372 0.000373379
80 2 3.80502 0.110954 1.84629 0.00454147 -0.000253829 -0.00247903
81 1 3.34364 5.54702 6.76359 0.000227343 -0.0025336 0.00191851
82 1 3.67398 5.40024 15.9925 0.00215595 0.0019683 -0.00206666
83 1 5.52733 2.55165 6.91796 0.00289301 0.00119316 0.000941348
84 1 5.85637 2.39356 16.0273 -0.0010802 0.0019049 -0.000398604
85 1 6.68188 5.55446 4.89043 -5.62201e-05 -0.00013501 -0.00152466
86 1 7.18418 5.44087 17.987 0.000371787 -0.000121725 -0.00224611
87 1 2.01733 2.49674 4.76654 0.00168314 0.000230429 0.00236289
88 1 2.53258 2.39036 18.0756 -0.00104358 -0.000509392 -0.000992202
