ITEM: TIMESTEP
45
ITEM: NUMBER OF ATOMS
62
ITEM: BOX BOUNDS xy xz yz pp pp pp
-3.2772902378507196e-01 1.1114968230615037e+01 -1.7419075194931100e-01
-1.9248619501204240e+00 7.4513555613175546e+00 -1.5353827183576099e-01
0.0000000000000000e+00 9.3746985947160670e+00 -1.9248619501204240e+00
ITEM: ATOMS id type x y z fx fy fz
1 1 11 -0.499829 4.66145 -0.00118369 0.00239955 -7.54872e-05
2 1 1.41004 2.77837 0.991469 0.000431575 -0.000747615 0.00230865
3 1 1.38947 6.5074 1.1436 0.00139895 -0.00132485 -0.000782779
4 1 3.93538 -1.04221 8.37302 -0.00173458 0.000306671 -0.000358344
5 1 3.70581 2.73941 8.2032 -0.000297372 -0.00334099 -0.00104487
6 1 5.35536 3.22657 4.66108 -0.000976222 0.00112432 0.000150359
7 1 7.03553 2.78091 1.14434 -0.00225166 -0.000407549 -0.00212492
8 1 6.88006 6.5033 0.990436 0.00195994 -0.00100669 0.00268429
9 1 9.34971 -0.986172 8.20257 0.00164532 0.000832737 -0.00141821
10 1 9.40525 2.6841 8.37198 0.00137745 -8.42798e-05 0.000409148
11 4 0.865946 4.85498 7.36446 -0.001332 -0.00141267 0.00262806
12 4 1.05611 0.538462 7.28045 0.00902256 -0.000160839 0.00210423
13 4 1.80757 2.74523 5.31191 0.00033181 -0.00401364 0.010473
14 4 3.28993 6.47127 4.06916 0.000763424 0.00673815 -0.00471368
15 4 4.20291 4.35805 2.03064 -0.000598094 0.00255623 0.00454867
16 4 4.30451 1.17754 2.05276 0.00778757 0.00102119 -0.00530153
17 4 6.51037 1.12869 7.36265 -0.00396296 -0.0100954 0.00487775
18 4 6.52735 4.2635 7.27983 -0.00519741 0.00818617 0.00363122
19 4 7.45147 -0.981496 5.31053 0.00273925 0.00486373 -0.000873167
20 4 8.93588 2.74702 4.0699 -0.00293067 0.000672202 -0.00489895
21 4 9.77571 4.90327 2.05169 -0.00354331 -0.000715662 -3.7135e-05
22 4 9.84708 0.63259 2.0323 0.00048607 0.00478733 0.000313631
23 3 10.656 4.61417 8.23696 0.00447295 0.000419612 -0.00213683
24 3 -0.290376 0.870814 8.09666 -0.00258181 -0.00207904 8.43141e-05
25 3 11.2221 0.955588 1.27898 -0.00538148 -0.00149245 9.79037e-05
26 3 -0.00927803 4.60646 1.1947 0.00024708 0.000446778 0.0008662
27 3 0.935332 -1.04491 6.72416 0.00122408 0.000430761 0.000505547
28 3 0.821176 3.89993 6.00279 -0.000120742 8.38311e-05 -0.0013081
29 3 1.09532 1.30214 5.78919 -0.000133098 0.00426278 -0.00141266
30 3 1.46646 2.91665 3.68812 -0.00655146 0.000672264 -0.00695107
31 3 1.75619 6.48217 3.62328 0.00486591 0.00173414 -0.000576719
32 3 2.35089 0.781939 8.19094 -0.00607298 -0.00246033 -0.00377545
33 3 2.20474 4.63614 8.23415 -0.00368011 0.00221483 -0.00143025
34 3 2.9141 4.60776 1.10388 0.00444606 0.000154137 0.00297221
35 3 2.98496 0.947154 1.16529 0.00395456 -0.000431877 0.00141209
36 3 3.33846 2.8178 5.75571 -0.00295528 0.000283651 -0.00109009
37 3 3.81665 -0.887026 5.69824 -0.00360755 0.00107862 0.00197387
38 3 4.35308 0.302564 3.46245 -0.000553948 -0.00653578 0.00373472
39 3 4.10363 5.10909 3.52447 0.000463491 -0.00717753 -0.00623215
40 3 4.35386 2.76694 2.58933 -0.000711051 -0.00167888 -0.00425302
41 3 5.18472 0.88694 8.23369 0.00572056 0.00323824 -0.00268756
42 3 5.18146 4.59535 8.09786 0.00390555 -0.000150061 -0.00436408
43 3 5.57716 4.6793 1.27519 -0.00294013 0.000778227 0.000737598
44 3 5.63547 0.880073 1.19678 -0.00808543 0.00140344 0.00460778
45 3 6.40702 2.68045 6.72335 -0.000743911 0.00482429 -0.0025253
46 3 6.4662 0.174528 6.00017 0.000543603 0.00371799 0.00418812
47 3 6.56401 5.02807 5.78873 -0.000946022 -0.00826263 0.00969037
48 3 6.93531 6.63945 3.68629 0.00593629 -0.00210195 -0.000155949
49 3 7.4021 2.75989 3.62391 0.00495167 -0.000638062 -0.000336798
50 3 7.84842 0.909985 8.23359 -7.98579e-05 0.00124888 -0.00161778
51 3 7.82251 4.50798 8.18937 -0.00642416 -0.00331188 -0.000678836
52 3 8.45539 4.67251 1.16523 0.00642576 0.00145598 0.00200884
53 3 8.559 0.882133 1.10431 0.00457627 -0.00215604 0.00235163
54 3 8.98248 -0.90968 5.75412 -0.00317155 0.000444645 0.000237941
55 3 9.28921 2.84275 5.69862 0.00147767 0.00214769 0.00255795
56 3 9.74609 1.38179 3.52705 0.00140559 -0.000886653 -0.00671927
57 3 9.82679 4.02699 3.46077 -0.00055965 -0.000975025 0.000408521
58 3 9.82419 6.49238 2.58916 0.00058846 -0.00602203 -0.00262962
59 2 0.622922 3.41989 3.60094 -0.000224304 -0.00308811 -0.000201696
60 2 4.68522 -0.421268 5.78843 0.00700814 0.00665309 -0.000127621
61 2 6.26622 -0.308828 3.59904 -0.00763511 0.00282567 0.00122038
62 2 10.158 3.30896 5.78828 -0.00298996 -0.00124952 -0.000944678
