ITEM: TIMESTEP
5531
ITEM: NUMBER OF ATOMS
104
ITEM: BOX BOUNDS xy xz yz pp pp pp
1.1931240209404503e-01 9.9499842418437705e+00 2.5734184262348609e+00
6.8758861051769760e-02 7.6807657419363604e+00 5.4177672515749620e-01
-3.7788521643992823e-02 2.8460724180338737e+01 1.3965103045050107e+00
ITEM: ATOMS id type x y z fx fy fz
75 4 1.81669 3.67953 0.65443 0.422591 0.419355 -0.498127
79 4 2.40196 1.56192 3.42694 -0.592838 0.192296 -0.0251737
29 3 5.51005 0.26928 0.771119 -0.168063 0.634453 0.154048
97 4 5.51262 0.216635 1.73941 -0.0733141 -0.0244497 -0.0334348
104 4 1.45709 2.80148 1.90388 -0.44248 -0.358793 -0.323314
67 3 7.89638 2.93972 0.957904 -0.294875 -0.445242 0.708772
90 4 3.46502 4.59317 0.585104 0.219461 -0.404854 0.382268
47 3 4.6896 3.88652 1.31299 -0.0244734 -0.522712 0.934024
17 2 4.62129 3.93048 2.94657 0.423634 1.61847 -1.91133
99 4 6.93645 4.65128 3.37044 1.2487 -0.246221 -0.430147
80 4 8.79064 5.5789 0.47881 -0.0883084 0.332551 0.464472
71 3 1.47631 1.92481 3.47303 0.642765 -0.466902 0.0651024
82 4 0.872055 1.17431 3.24577 0.278277 0.292734 0.266208
10 1 1.63359 2.14223 6.18395 -0.586939 -0.015646 -0.213192
49 3 4.44438 2.47582 3.62196 -0.503427 0.456052 -0.781505
18 2 5.04059 1.88257 5.00378 0.423522 -2.62604 -0.271119
30 3 5.71698 0.444287 4.29665 0.939053 -0.0977621 0.647967
41 3 3.79059 1.29958 5.85727 -0.177686 0.436942 0.659893
57 3 5.96929 2.82721 5.91391 -0.194543 -0.166087 -0.183027
14 2 2.58754 5.39088 4.87883 -0.249973 1.99666 0.621301
38 3 3.43305 4.94967 3.51209 -0.571783 -0.6323 0.0133867
56 3 6.00653 4.68978 3.52266 -1.55452 0.318124 0.837704
43 3 3.7127 6.09896 5.89651 -0.262313 -1.27959 -0.459007
8 1 6.0731 5.23409 6.10832 0.225561 -0.237303 0.0836969
27 3 8.32192 4.39461 5.74166 1.14367 0.610562 -0.778052
22 2 1.18146 2.43478 9.22298 1.0194 -1.0787 -0.000198198
33 3 2.47842 2.83739 8.30506 0.00702895 0.776285 0.122222
6 1 4.81282 2.13553 7.95992 -0.191369 -0.151602 0.639172
64 3 7.0485 1.42013 8.26097 -0.197401 0.644467 0.937518
3 1 2.89949 5.31875 7.92268 -0.603298 -0.304189 0.812475
51 3 5.0219 4.52213 8.50768 -0.668592 0.212573 -0.6176
20 2 6.30769 5.06972 9.29449 0.540332 0.221931 0.148501
24 3 7.2913 5.89316 8.31245 -0.141442 0.146899 -0.18125
72 3 1.70816 1.66586 10.6405 1.03015 0.159726 0.465099
11 2 3.27172 1.29985 11.1213 -1.36577 -0.0151771 -0.102788
50 3 4.42006 2.3434 10.5671 -0.183438 -0.527923 -0.557689
96 4 4.06508 3.25827 10.6172 0.033328 0.49928 -0.243872
23 3 3.49843 1.42711 12.7774 -0.503344 -0.721284 -0.782255
68 3 7.07571 3.71958 9.89453 0.31982 -0.195265 -0.0141103
83 4 7.17132 1.38516 12.2271 -0.331817 0.304177 1.5456
35 3 2.81595 4.80038 10.9844 -1.04418 -0.283722 0.569195
87 4 8.55998 4.59099 10.9498 0.549716 0.00465 -0.532171
59 3 6.03526 5.95459 10.7216 0.507571 -0.553471 -0.378961
91 4 2.96553 4.65544 11.9664 0.72491 0.235402 -0.386363
76 4 6.59611 4.83684 12.2431 0.309659 -0.378449 1.37027
85 4 3.6407 2.3816 12.8946 0.0156768 1.04881 0.544317
48 3 4.58909 2.81954 15.2795 1.13576 -1.09702 -0.398212
92 4 4.22524 3.36082 14.4142 -0.205729 1.16048 0.102157
37 3 3.98962 4.24366 13.4705 -0.207592 -0.721957 0.239396
61 3 6.87812 1.55685 13.1991 0.286248 -0.663573 -1.89907
101 4 7.05439 2.5069 13.3046 -0.00636813 0.647168 0.0378959
81 4 3.38806 4.74817 14.0759 0.0082353 -0.0191451 -0.177451
65 3 6.67874 4.54293 13.2244 0.241443 0.619717 -2.01337
102 4 5.71033 4.38222 13.3776 -0.340214 0.00025886 0.421329
54 3 5.6273 6.09318 15.4899 -0.626181 -0.713955 -1.39264
93 4 4.82567 5.85231 14.935 0.764749 0.317988 0.552785
31 3 2.55583 5.64111 15.2051 0.0711049 0.0394246 0.482262
1 1 7.56954 6.80129 14.3944 -0.282932 -0.155611 0.0132447
89 4 0.81661 1.55376 17.3701 -0.468385 1.30803 -0.0283758
45 3 4.08123 2.20358 18.3462 0.444541 -0.77129 -0.0462976
74 4 4.11577 3.07059 16.0774 -0.686354 0.261612 0.251801
100 4 6.22236 3.32462 16.6276 -0.617616 0.00661069 -0.507481
63 3 6.8405 3.27757 17.3683 0.492512 -0.102065 0.44584
34 3 2.81143 4.2803 17.5286 -0.285973 1.49678 -0.901881
40 3 3.77021 6.88314 17.3947 0.490844 -2.18173 -0.225821
95 4 5.26625 6.30096 16.3566 -0.370025 0.485421 0.902716
103 4 7.66401 3.70285 17.0507 0.0735366 0.0867458 0.217121
13 2 2.56998 5.79651 16.785 0.677413 -0.501582 1.44983
26 3 7.87962 6.48951 17.2996 0.258643 -0.522524 -0.502615
70 3 1.96003 3.02087 19.8266 0.46181 -0.122787 -0.866228
15 2 3.27188 3.49211 18.9209 -1.62773 -0.506981 0.386299
9 1 6.44305 3.65976 19.9746 0.0695167 -0.197978 0.30505
28 3 6.24183 1.09611 19.7324 -0.112211 0.90739 0.159092
42 3 4.20759 4.32463 19.8855 0.682589 1.02129 0.417802
5 1 4.37211 6.73297 19.9807 -0.477341 -0.0256204 0.216654
60 3 6.52995 6.01946 19.6484 0.680731 0.532099 -0.457108
12 2 7.50968 7.06419 18.8221 -0.924545 -1.00091 0.0362312
4 1 2.90512 3.56841 21.8703 0.324939 0.351623 0.890101
32 3 2.49435 3.43382 24.5506 1.04561 0.672858 -0.317543
52 3 2.86641 1.15236 22.0745 -0.553927 -0.221158 0.983571
53 3 5.33215 2.76744 22.2611 0.463742 1.41621 1.13728
62 3 6.56353 3.10865 24.6847 1.18667 -0.521018 1.41924
36 3 3.18922 5.97312 22.2768 0.0291772 0.354504 0.0151197
19 2 6.14434 3.83389 23.2834 0.185507 0.566279 -3.16894
44 3 3.99696 7.22379 24.5544 0.450325 0.537321 0.0237097
16 2 4.49107 6.5015 23.1008 -0.620401 -0.370384 0.0135186
55 3 5.17159 5.13666 23.7477 0.76143 -0.954568 0.194588
77 4 8.02625 7.4803 24.6686 0.378998 1.58933 0.227517
2 1 7.69125 6.68981 21.8952 0.2098 0.0950573 -0.063304
66 3 7.46633 4.43577 22.4083 -1.45197 -0.908681 0.492046
25 3 7.72529 6.58298 24.5618 -0.536445 -0.901981 -0.353217
78 4 8.55359 6.13243 24.3287 0.462218 -0.529427 -0.0636614
21 2 1.34745 2.5185 25.1918 -2.54504 -1.22255 0.00622633
84 4 1.44561 1.77161 27.3652 0.421454 -2.27828 1.19799
69 3 1.30374 2.55528 26.8792 -0.571714 2.15954 -2.33093
86 4 3.28568 3.52735 25.1077 0.358169 0.259996 0.207219
39 3 2.61506 4.69328 0.0560614 0.291205 -0.0224634 -1.13561
73 4 4.88709 4.71308 25.9468 -0.330564 -0.31271 0.609013
88 4 3.90628 5.12877 27.0789 -0.318124 0.224774 0.510534
46 3 4.44202 4.3705 26.7771 0.8862 -0.0311873 -1.3096
7 1 6.39372 3.84449 28.3234 -0.106574 0.702093 0.224186
58 3 7.12893 5.84179 27.1372 0.161724 -0.0107891 0.345715
94 4 7.82207 6.36573 27.6091 -0.458303 -0.260104 -0.404729
98 4 7.2118 6.01778 26.1657 0.266791 0.200712 0.140481
