LAMMPS (2 Aug 2023 - Update 1)
OMP_NUM_THREADS environment is not set. Defaulting to 1 thread. (src/comm.cpp:98)
  using 1 OpenMP thread(s) per MPI task
Loaded 1 plugins from /home/zkm/anaconda3/envs/deepmd/lib/deepmd_lmp
# Compute elastic constant tensor for a crystal at finite temperature
#
# WARNING: This script attempts to measure small differences in
# statistical averages generated by finite temperature MD simulations.
# This creates many more opportunities for errors to occur, compared
# to the zero temperature version provided in examples/ELASTIC.
# Hence, it is always a good idea to start with the zero temperature
# calculation, before attempting to use this script.
#
# Written by Aidan Thompson (Sandia, athomps@sandia.gov)
#
#  This script uses the following three include files.
#
#   init.mod      (must be modified for different crystal structures)
# 	       	  Define units, MD parameters, deformation parameters,
#		  and initial configuration of the atoms and simulation cell.
#
#
#   potential.mod    (must be modified for different pair styles)
# 		     Define pair style and other attributes
#		     not stored in restart file
#
#
#   displace.mod    (displace.mod should not need to be modified)
# 		    Perform positive and negative box displacements
# 		    in direction ${dir} and size ${up}.
# 		    It uses the resultant changes
#		    in stress to compute one
# 		    row of the elastic stiffness tensor
#
#		    Inputs variables:
#		    	   dir = the Voigt deformation component
#		    		    (1,2,3,4,5,6)
#		    Global constants:
#       	    	   up = the deformation magnitude (strain units)
#       		   cfac = conversion from LAMMPS pressure units to
#               	   output units for elastic constants
#
#
#  To run this on a different system, it should only be necessary to
#  modify the files init.mod and potential.mod. In order to calculate
#  the elastic constants correctly, care must be taken to specify
#  the correct units in init.mod (units, cfac and cunits). It is also
#  important to verify that the MD sampling of stress components
#  is generating accurate statistical averages.
#  One indication of this is that the elastic constants are insensitive
#  to the choice of the variable ${up} in init.mod. Another is to
#  check for finite size effects.
#

# include init.mod

# NOTE: This script can be modified for different atomic structures,
# units, etc. See in.elastic for more info.
#

# Define the finite deformation size. Try several values of this
# variable to verify that results do not depend on it.
variable up equal 2.0e-2

# real units, elastic constants in GPa
units		metal
atom_style atomic
variable cfac equal 1.0e-4
variable cunits string GPa

# Define MD parameters
variable nevery equal 10                  # sampling interval
variable nrepeat equal 10                 # number of samples
variable nfreq equal ${nevery}*${nrepeat} # length of one average
variable nfreq equal 10*${nrepeat} 
variable nfreq equal 10*10 
variable nthermo equal ${nfreq}           # interval for thermo output
variable nthermo equal 100           
variable nequil equal 10*${nthermo}       # length of equilibration run
variable nequil equal 10*100       
variable nrun equal 3*${nthermo}          # length of equilibrated run
variable nrun equal 3*100          
variable temp equal 300                   # temperature of initial sample
variable timestep equal 0.001             # timestep
variable adiabatic equal 2                # adiabatic (1) or isothermal (2)
variable tdamp equal 0.01                 # time constant for thermostat
variable seed equal 123457                # seed for thermostat

# generate the box and atom positions using a diamond lattice
variable a equal 5.431

boundary	p p p


box tilt large

The 'box' command has been removed and will be ignored

read_data tob14_ref_deepmd.data
Reading data file ...
  triclinic box = (0 0 0) to (6.9541015 6.3530143 28.422936) with tilt (2.6303553 0.54033995 1.3928068)
  1 by 1 by 1 MPI processor grid
  reading atoms ...
  104 atoms
  read_data CPU = 0.001 seconds

pair_style	deepmd tob14_deepmd_compress.pb
Summary of lammps deepmd module ...
  >>> Info of deepmd-kit:
  installed to:       /home/zkm/anaconda3/envs/deepmd
  source:             v2.2.7
  source branch:       HEAD
  source commit:      839f4fe7
  source commit at:   2023-10-27 21:10:24 +0800
  surpport model ver.:1.1 
  build variant:      cuda
  build with tf inc:  /home/zkm/anaconda3/envs/deepmd/include;/home/zkm/anaconda3/envs/deepmd/include
  build with tf lib:  /home/zkm/anaconda3/envs/deepmd/lib/libtensorflow_cc.so
  set tf intra_op_parallelism_threads: 0
  set tf inter_op_parallelism_threads: 0
  >>> Info of lammps module:
  use deepmd-kit at:  /home/zkm/anaconda3/envs/deepmdpair_coeff	* * Ca Si O H
mass            1 40.079800
mass            2 28.08500
mass            3 15.9994
mass            4 1.00794


change_box all triclinic
Changing box ...
  triclinic box = (0 0 0) to (6.9541015 6.3530143 28.422936) with tilt (2.6303553 0.54033995 1.3928068)

velocity	all create ${temp} 87287
velocity	all create 300 87287

thermo 100
min_style cg
minimize 1.0e-15 1.0e-15 100000 100000 #设置能量最小化

CITE-CITE-CITE-CITE-CITE-CITE-CITE-CITE-CITE-CITE-CITE-CITE-CITE

Your simulation uses code contributions which should be cited:

- USER-DEEPMD package:

@article{Wang_ComputPhysCommun_2018_v228_p178,
  author = {Wang, Han and Zhang, Linfeng and Han, Jiequn and E, Weinan},
  doi = {10.1016/j.cpc.2018.03.016},
  url = {https://doi.org/10.1016/j.cpc.2018.03.016},
  year = 2018,
  month = {jul},
  publisher = {Elsevier {BV}},
  volume = 228,
  journal = {Comput. Phys. Commun.},
  title = {{DeePMD-kit: A deep learning package for many-body potential energy representation and molecular dynamics}},
  pages = {178--184}
}
@misc{Zeng_JChemPhys_2023_v159_p054801,
  title  = {{DeePMD-kit v2: A software package for deep potential models}},
  author =   {Jinzhe Zeng and Duo Zhang and Denghui Lu and Pinghui Mo and Zeyu Li
         and Yixiao Chen and Mari{\'a}n Rynik and Li'ang Huang and Ziyao Li and 
         Shaochen Shi and Yingze Wang and Haotian Ye and Ping Tuo and Jiabin
         Yang and Ye Ding and Yifan Li and Davide Tisi and Qiyu Zeng and Han 
         Bao and Yu Xia and Jiameng Huang and Koki Muraoka and Yibo Wang and 
         Junhan Chang and Fengbo Yuan and Sigbj{\o}rn L{\o}land Bore and Chun
         Cai and Yinnian Lin and Bo Wang and Jiayan Xu and Jia-Xin Zhu and 
         Chenxing Luo and Yuzhi Zhang and Rhys E A Goodall and Wenshuo Liang
         and Anurag Kumar Singh and Sikai Yao and Jingchao Zhang and Renata
         Wentzcovitch and Jiequn Han and Jie Liu and Weile Jia and Darrin M
         York and Weinan E and Roberto Car and Linfeng Zhang and Han Wang},
  journal =  {J. Chem. Phys.},
  volume =   159,
  issue =    5,  
  year =    2023,
  pages  =   054801,
  doi =      {10.1063/5.0155600},
}

CITE-CITE-CITE-CITE-CITE-CITE-CITE-CITE-CITE-CITE-CITE-CITE-CITE

Generated 0 of 6 mixed pair_coeff terms from geometric mixing rule
Neighbor list info ...
  update: every = 1 steps, delay = 0 steps, check = yes
  max neighbors/atom: 2000, page size: 100000
  master list distance cutoff = 6
  ghost atom cutoff = 6
  binsize = 3, bins = 4 3 10
  1 neighbor lists, perpetual/occasional/extra = 1 0 0
  (1) pair deepmd, perpetual
      attributes: full, newton on
      pair build: full/bin/atomonly
      stencil: full/bin/3d
      bin: standard
Per MPI rank memory allocation (min/avg/max) = 4.22 | 4.22 | 4.22 Mbytes
   Step          Temp          E_pair         E_mol          TotEng         Press     
         0   300           -655.95755      0             -651.96342     -42966.266    
       100   300           -663.94377      0             -659.94963     -31793.794    
       200   300           -663.98727      0             -659.99313     -31567.757    
       300   300           -664.01216      0             -660.01802     -31099.667    
       400   300           -664.01235      0             -660.01821     -31108.63     
       500   300           -664.01235      0             -660.01821     -31114.45     
       531   300           -664.01235      0             -660.01821     -31114.416    
Loop time of 45.3053 on 1 procs for 531 steps with 104 atoms

100.3% CPU use with 1 MPI tasks x 1 OpenMP threads

Minimization stats:
  Stopping criterion = energy tolerance
  Energy initial, next-to-last, final = 
     -655.957554945937  -664.012346340838  -664.012346340838
  Force two-norm initial, final = 18.742849 5.7377709e-06
  Force max component initial, final = 4.1474401 1.3497847e-06
  Final line search alpha, max atom move = 1 1.3497847e-06
  Iterations, force evaluations = 531 1062

MPI task timing breakdown:
Section |  min time  |  avg time  |  max time  |%varavg| %total
---------------------------------------------------------------
Pair    | 45.276     | 45.276     | 45.276     |   0.0 | 99.93
Neigh   | 0.00090769 | 0.00090769 | 0.00090769 |   0.0 |  0.00
Comm    | 0.011658   | 0.011658   | 0.011658   |   0.0 |  0.03
Output  | 0.00026799 | 0.00026799 | 0.00026799 |   0.0 |  0.00
Modify  | 0          | 0          | 0          |   0.0 |  0.00
Other   |            | 0.01667    |            |       |  0.04

Nlocal:            104 ave         104 max         104 min
Histogram: 1 0 0 0 0 0 0 0 0 0
Nghost:           1138 ave        1138 max        1138 min
Histogram: 1 0 0 0 0 0 0 0 0 0
Neighs:              0 ave           0 max           0 min
Histogram: 1 0 0 0 0 0 0 0 0 0
FullNghs:         7610 ave        7610 max        7610 min
Histogram: 1 0 0 0 0 0 0 0 0 0

Total # of neighbors = 7610
Ave neighs/atom = 73.173077
Neighbor list builds = 1
Dangerous builds = 0

thermo_style  custom step temp press etotal lx ly lz xy yz xz pxx pyy pzz

#fix 456 all nve
#fix 567 all langevin 300.0 300.0 0.1 12345

#run 5000

#unfix 456
#unfix 567
fix 123 all npt temp 300 300 1 tri 1.0 1.0 1
run 10000
Generated 0 of 6 mixed pair_coeff terms from geometric mixing rule
Per MPI rank memory allocation (min/avg/max) = 3.111 | 3.111 | 3.111 Mbytes
   Step          Temp          Press          TotEng           Lx             Ly             Lz             Xy             Yz             Xz            Pxx            Pyy            Pzz      
       531   300           -31114.416     -660.01821      6.9541015      6.3530143      28.422936      2.6303553      1.3928068      0.54033995    -32481.925     -37139.731     -23721.591    
       600   172.6282      -129.24821     -660.64962      6.8283787      6.2317918      28.087676      2.6253109      1.3006184      0.57970009     1871.2062     -7929.5309      5670.58      
       700   170.74984      23275.242     -660.23484      6.6653274      6.0848452      27.989743      2.6329349      1.014772       0.92477681     29275.969      31461.068      9088.6896    
       800   183.7302      -1984.9267     -660.31986      6.7760437      6.2308147      28.184274      2.6863108      0.94442593     1.4523122     -411.70268     -8177.4322      2634.3548    
       900   162.61635     -7255.6635     -660.21791      6.7745661      6.2686748      28.339808      2.677586       1.2198213      1.807285       3334.5374     -7992.2359     -17109.292    
      1000   206.05586      14954.327     -660.26738      6.6790452      6.155653       28.004556      2.6351352      1.6592523      1.8029591      19035.256      17697.246      8130.4784    
      1100   160.1777      -15738.767     -660.17044      6.7781926      6.184501       28.138637      2.6633273      2.0506966      1.8242545     -20406.479     -15919.392     -10890.43     
      1200   194.82404      3078.0355     -660.04213      6.7925319      6.1534089      28.086714      2.6511832      2.1885379      1.793313      -1754.2536     -2592.5056      13580.866    
      1300   210.10822     -5940.3993     -660.01412      6.8227239      6.1278834      28.563401      2.6500605      2.1723703      1.7432512     -8037.5759     -2983.5283     -6800.0936    
      1400   187.6445       16700.763     -659.90818      6.7801971      6.079043       28.595742      2.635702       1.9053568      1.7927266      12354.317      26717.44       11030.531    
      1500   199.76209     -905.51496     -659.88842      6.8016326      6.1327851      28.405464      2.6547639      1.595568       1.9633619     -893.02972      3453.248      -5276.7631    
      1600   194.45874      12726.599     -659.79051      6.7958329      6.1900877      28.007798      2.6700459      1.2368808      2.1751317      13147.241      5229.2263      19803.329    
      1700   185.17561     -11658.005     -659.76973      6.7675786      6.2327113      28.278445      2.6418389      1.2199646      2.2229714     -7697.4312     -21529.186     -5747.3996    
      1800   216.0314       10901.157     -659.73854      6.7413528      6.1195183      28.666201      2.6181249      1.6099258      2.2053501      16063.562      16805.16      -165.25131    
      1900   197.98066     -8360.0233     -659.56367      6.8480365      6.1215801      28.978672      2.6407438      1.9805995      2.5151117     -9993.6754     -9141.5442     -5944.8502    
      2000   226.50292      1739.4096     -659.472        6.8423491      6.0874676      29.00383       2.6061146      1.9588061      2.9292706      807.77966      8276.343      -3865.8939    
      2100   206.44349     -1415.3387     -659.46237      6.7691466      6.1268538      28.670926      2.5477239      2.0227008      3.0649391     -1270.9757      2390.5552     -5365.5957    
      2200   218.48761     -1945.2608     -659.30506      6.7170658      6.2125825      28.306066      2.5425374      2.2028175      2.962269      -151.56355     -6821.1061      1136.8874    
      2300   231.86141     -10810.14      -659.22444      6.7507211      6.2263048      28.204429      2.6154683      2.0686865      2.9290008     -10518.226     -8063.3144     -13848.88     
      2400   237.79163     -2575.692      -659.09423      6.7767544      6.1693983      28.173466      2.6894548      1.6963602      2.7980422     -7032.7745      2473.5628     -3167.8643    
      2500   219.73473      3542.7467     -659.03437      6.8408179      6.1410985      28.424695      2.7205757      1.5143746      2.402459       5862.8085      658.6175       4106.8142    
      2600   244.53259      8616.1566     -658.90701      6.9026492      6.0816936      28.561678      2.6932807      1.5061161      1.7485343      1269.0997      16839.026      7740.3444    
      2700   246.4699       5163.5035     -658.9016       6.8360545      6.1007072      28.439465      2.6081797      1.4475061      1.0730638      5659.983       6128.8981      3701.6294    
      2800   257.59018     -4828.2782     -658.74956      6.752491       6.1908217      28.357458      2.5455966      1.2213726      0.71712089     128.80576     -15297.476      683.83547    
      2900   231.11751     -3741.8559     -658.57337      6.7634604      6.220532       28.622472      2.5927292      1.0195841      0.71041545    -3724.3603     -5812.786      -1688.4215    
      3000   253.94342     -7610.1498     -658.48214      6.7787343      6.1541081      28.817924      2.6815827      0.95052885     0.70616011    -8582.5436     -2457.0006     -11790.905    
      3100   277.8623      -2773.8499     -658.35909      6.8214699      6.1354438      28.755369      2.7431561      0.78020989     0.78713801    -401.58892     -3719.35       -4200.6109    
      3200   254.31195      1637.1209     -658.26948      6.8585775      6.1354556      28.664467      2.717681       0.57264616     1.0863942      1100.2627      1741.7102      2069.3898    
      3300   276.67427      5701.8318     -658.20213      6.8235965      6.1032823      28.624887      2.6162048      0.51417007     1.3461143      9719.9541      5299.9195      2085.6217    
      3400   233.25364     -4469.1524     -658.12898      6.7600858      6.1747351      28.574256      2.5366714      1.0234915      1.3869421      5865.3146     -19873.711      600.93889    
      3500   252.41237      3604.4922     -657.95034      6.7473543      6.2247923      28.612702      2.5673797      1.6247532      1.5556106      6199.302      -851.07755      5465.2522    
      3600   281.12037     -2198.096      -657.91618      6.807156       6.1785807      28.702236      2.6694759      1.9594496      1.8647791     -8915.9231      1133.6675      1187.9674    
      3700   276.65232     -6860.0779     -657.70773      6.8441764      6.1277338      28.896536      2.7841269      1.9377334      2.1754408     -4687.5156     -8639.3302     -7253.3879    
      3800   282.85218      5968.5276     -657.71183      6.8151524      6.1666588      28.747746      2.7785861      1.6019018      2.1582127      7172.5593      8858.3789      1874.6447    
      3900   270.56592      10088.292     -657.55244      6.714849       6.2458421      28.424115      2.6602409      1.0999427      2.1062752      17936.622      6272.2881      6055.9644    
      4000   270.1788      -6333.557      -657.46891      6.710987       6.2952704      28.410568      2.5494382      0.78958731     1.8225365      5878.236      -21184.321     -3694.5859    
      4100   310.07805     -1312.2718     -657.45349      6.7551161      6.2026192      28.67445       2.5453722      0.52500822     1.3850705     -6234.7897      1535.3633      762.61117    
      4200   285.40739     -3947.7036     -657.28342      6.7967636      6.1069178      29.142348      2.6276481      0.52827134     0.93038274    -3657.0312      6717.141      -14903.22     
      4300   309.0271      -2503.9797     -657.20725      6.8205699      6.1416246      29.141261      2.7067054      0.47848364     0.67229952    -10803.468      6069.539      -2778.0096    
      4400   297.58901     -9623.7146     -657.25677      6.7583036      6.2528178      28.694795      2.7197459      0.17376872     0.66741726    -9334.6899     -13463.962     -6072.4918    
      4500   293.81162      3675.5212     -657.02905      6.6821395      6.2983691      28.073827      2.6896233     -0.082539526    0.78971187     5544.2968     -13548.083      19030.35     
      4600   302.7589      -2748.4593     -657.03639      6.7223621      6.2856565      28.414905      2.6601687     -0.015688454    0.74316648    -3653.8076     -19986.474      15394.903    
      4700   316.58603      5591.6974     -656.95581      6.7398001      6.1784418      28.888188      2.6509885      0.19990313     0.57937316     14780.758     -1428.2663      3422.6008    
      4800   311.38245     -3343.0551     -656.89734      6.7902326      6.1467019      29.11572       2.6797977      0.55822261     0.49505465    -334.9101      -152.74267     -9541.5126    
      4900   275.5758       10361.398     -656.86531      6.804457       6.1446512      28.792466      2.6848328      0.79924505     0.62382469     7394.5447      10139.058      13550.592    
      5000   313.11582      1311.4327     -656.82976      6.7936625      6.2046966      28.35089       2.6527138      0.93076549     0.93928693    -1065.4904     -8096.6817      13096.47     
      5100   290.66604      13790.224     -656.79737      6.7399219      6.2612275      28.359293      2.6124737      0.71253504     1.2296754      20025.185      9821.1736      11524.315    
      5200   318.00334     -6985.776      -656.78814      6.7331351      6.2490438      28.652933      2.6389312      0.30486698     1.4989054     -9654.0751     -12430.015      1126.7624    
      5300   335.02034     -8743.3813     -656.69646      6.7068739      6.2032777      28.937657      2.674651       0.1261595      1.4759217     -11099.511     -11792.14      -3338.4927    
      5400   344.28565     -5243.3265     -656.77363      6.7358896      6.2167053      28.895889      2.7284476      0.47484537     1.3499883     -8542.8336     -2090.2835     -5096.8623    
      5500   341.84988     -4826.1384     -656.67249      6.7768081      6.2610355      28.762742      2.7316389      0.93686054     0.99037847    -4117.2775     -14223.277      3862.1389    
      5600   338.06539      9733.0559     -656.66066      6.7190354      6.2133164      28.777691      2.6912166      1.1200065      0.64695488     9237.5764      10389.484      9572.1074    
      5700   313.97611      6133.4877     -656.67276      6.745059       6.2189393      29.000044      2.6598469      0.76637192     0.56502412     11511.414      4948.8533      1940.1959    
      5800   305.99437     -5589.3353     -656.7643       6.7703067      6.2048494      28.888999      2.6456756      0.0184723      0.77958269    -2469.3058     -3432.4143     -10866.286    
      5900   325.79727     -1860.215      -656.66191      6.7575944      6.1993935      28.600256      2.6249315     -0.5545798      0.88853074     3360.9259      4412.1351     -13353.706    
      6000   316.51774      16951.877     -656.66408      6.7453815      6.227012       28.374541      2.6332385     -0.41981005     0.64375514     14590.003      15771.816      20493.813    
      6100   322.45709     -6979.0097     -656.69679      6.787176       6.2730447      28.786232      2.6876926      0.11291737     0.45295589    -11418.138     -8040.7623     -1478.1287    
      6200   315.49487      7526.1358     -656.72963      6.7212013      6.1983423      28.671931      2.699262       0.28044512     0.32126529     9828.152       14798.676     -2048.4203    
      6300   316.98801     -6001.735      -656.73109      6.7434323      6.2100504      28.53236       2.6798671      0.3123821      0.10232508    -3878.3447     -7923.4536     -6203.4068    
      6400   289.30276     -4904.6208     -656.7814       6.7722735      6.2423055      28.369897      2.6515153      0.062468567   -0.13980248    -903.41056     -9986.0171     -3824.4347    
      6500   302.14384     -5134.8352     -656.79334      6.749727       6.2178617      28.211751      2.622161      -0.2360141     -0.25412548    -3747.8227     -7032.2307     -4624.4522    
      6600   325.21387      7503.0074     -656.84461      6.7571403      6.1678121      28.112108      2.6256444     -0.20340532    -0.09753063     18595.923     -3961.5781      7874.6779    
      6700   336.30187      4192.728      -656.91859      6.8223893      6.1691141      28.429692      2.6813965     -0.025685342    0.089953807    6377.6335      8170.6555     -1970.1049    
      6800   292.52085     -2874.5367     -656.92316      6.7988226      6.1801788      28.518027      2.6995071      0.27363975     0.39312453    -4369.5558     -3005.4597     -1248.5946    
      6900   273.5972      -2732.142      -656.98528      6.7040336      6.2107883      28.497406      2.6493182      0.48129075     0.4537029     -7236.043      -4631.6669      3671.284     
      7000   280.44941     -4957.9074     -656.98804      6.676009       6.2987368      28.82214       2.6048741      0.43916977     0.52337824    -1278.5995     -19067.129      5472.0059    
      7100   330.09491     -3385.7892     -657.09147      6.7396898      6.2427001      28.698018      2.6238908      0.0037456991   0.54342003    -9629.5877     -7321.7413      6793.9614    
      7200   281.78605      5651.2736     -657.06155      6.8102345      6.1195989      28.539334      2.6590081     -0.41143992     0.44505813    -3537.1501      13307.722      7183.249     
      7300   284.46562     -15102.694     -657.1308       6.8166468      6.151997       28.472994      2.6304638     -0.30291153     0.0084981524  -13615.147     -9349.6573     -22343.277    
      7400   307.04098     -1873.3775     -657.12078      6.7454752      6.2500843      28.187678      2.5949536      0.0098082049  -0.42691862     4792.3205     -3794.6389     -6617.814     
      7500   321.59057      3156.7902     -657.11616      6.7189445      6.2962045      28.041619      2.6260259      0.22894646    -0.64043304     1771.8614     -3203.166       10901.675    
      7600   289.62939      5077.4422     -657.24533      6.7232407      6.2081596      28.339418      2.7371218      0.24132499    -0.95038608     2634.1643      8635.5333      3962.629     
      7700   315.81081     -5475.7802     -657.17605      6.7813254      6.1668833      28.708847      2.8051245      0.15873219    -1.0688061     -2130.3515     -2068.8271     -12228.162    
      7800   263.19349     -6724.0063     -657.34989      6.7841805      6.1866476      28.481315      2.7725094     -0.34884392    -0.90104814    -2340.021      -5850.3809     -11981.617    
      7900   305.24042     -8203.4319     -657.39652      6.7660854      6.2576019      28.254194      2.6546478     -1.1834686     -0.55401938     3102.9954     -16128.267     -11585.024    
      8000   293.8711      -2796.2155     -657.25989      6.7360652      6.2764485      27.995454      2.5412448     -1.4882037     -0.38850102    -3150.2215     -11914.659      6676.2344    
      8100   291.14095      1561.9327     -657.4622       6.7318196      6.1823671      28.394058      2.5658348     -1.2949735     -0.59059992     2334.7263      5049.4609     -2698.3891    
      8200   296.02214      1379.6824     -657.44936      6.7862347      6.1438557      28.71805       2.654352      -0.64739211    -0.91814684    -501.79446      6039.342      -1398.5004    
      8300   256.26573      1955.1048     -657.45406      6.8154613      6.1670872      28.904502      2.7139409     -0.014132956   -0.9988435     -1319.7828      10486.592     -3301.4944    
      8400   294.9581       787.85835     -657.50375      6.7263985      6.2102761      28.794394      2.6652163      0.29270204    -0.96926817     3410.2324      3129.9085     -4176.5658    
      8500   303.57205     -7418.3829     -657.53272      6.6656056      6.2778937      28.54301       2.5955062      0.23841696    -0.92026256     8747.6033     -17483.817     -13518.935    
      8600   278.59176      285.14817     -657.62275      6.707873       6.2792866      28.43856       2.5677763     -0.16033711    -0.75301228     8648.6064     -3563.2633     -4229.8987    
      8700   267.72674     -12916.833     -657.6613       6.8074904      6.2153014      28.795838      2.5934665     -0.70809622    -0.64303607    -15625.08      -5953.2041     -17172.214    
      8800   256.75323      8109.8023     -657.60889      6.7730642      6.1201059      28.91127       2.6394894     -0.94689882    -0.80926518     7180.2807      19701.764     -2552.6378    
      8900   261.53897     -136.05018     -657.72383      6.7040061      6.2285215      28.714752      2.6882603     -0.96939111    -1.0997814      2850.8402     -321.94621     -2937.0446    
      9000   284.54704      1477.3831     -657.63232      6.6511991      6.353241       28.505008      2.7214218     -0.96762025    -1.3814043      13181.587     -4094.3132     -4655.1244    
      9100   296.43325     -6740.8425     -657.69291      6.6534317      6.3605235      28.488291      2.7100711     -1.0213342     -1.4020728      1878.5177     -13009.194     -9091.8517    
      9200   269.98562     -2199.3235     -657.68451      6.691577       6.245746       28.383072      2.6822549     -1.1020133     -1.2064769     -7859.6105     -1417.6901      2679.3303    
      9300   273.86216     -7032.5911     -657.70159      6.8067661      6.1883199      28.597822      2.6910507     -0.85539085    -0.80023862    -17234.71       5154.4108     -9017.4739    
      9400   292.71422     -1351.3064     -657.70883      6.7745378      6.1913271      28.553158      2.6420386     -0.33484863    -0.32708312    -11838.94       5858.398       1926.6226    
      9500   322.9299       5347.4843     -657.76435      6.6829661      6.2371034      28.44105       2.6205102      0.31085852     0.091426812    8135.966       5098.0078      2808.4791    
      9600   294.09109     -2535.3795     -657.67485      6.672052       6.3021748      28.285186      2.6456777      0.92161532     0.25109567     237.16996     -8467.2675      623.95914    
      9700   282.28148      5283.0578     -657.6149       6.689983       6.3136917      28.316269      2.6927027      1.0420079      0.4718236      7937.8702      5499.8721      2411.4311    
      9800   278.24465      2245.8347     -657.68396      6.6810548      6.2572653      28.826112      2.7070708      0.69663988     0.66859201     8077.9567      5029.1555     -6369.608     
      9900   307.47916     -4704.526      -657.61779      6.7028561      6.1689684      28.987203      2.6846712      0.26101991     0.80303623     1682.5704      7675.9307     -23472.079    
     10000   263.5287       2133.5232     -657.58209      6.7521872      6.1799826      28.628989      2.6557876      0.22706281     0.79537492    -5597.8811      13390.975     -1392.5245    
     10100   271.58492      15993.407     -657.5301       6.6977705      6.2788771      28.169344      2.6050539      0.1869051      0.72822627     15908.921      12110.093      19961.205    
     10200   284.52656     -8592.1848     -657.46723      6.6617375      6.3442685      28.295897      2.6185772      0.24056426     0.55401159    -8047.3766     -15031.611     -2697.5669    
     10300   290.74153      3138.7142     -657.47506      6.6546718      6.2394648      28.567155      2.6985916      0.33730821     0.2644597      3550.6748      6645.9412     -780.47337    
     10400   285.00359     -2044.3018     -657.33445      6.735669       6.2047078      28.938927      2.7755803      0.45827449     0.063037291   -2259.8076     -2115.848      -1757.2497    
     10500   259.99174     -2755.8887     -657.25444      6.7713663      6.2041477      28.8394        2.7789741      0.29156377    -0.0019747875  -9241.7527     -1543.5046      2517.5912    
     10531   350.37235     -8459.6505     -657.27936      6.7571624      6.2148778      28.791677      2.7624616      0.2136093      0.011373801   -8689.4459     -1730.213      -14959.293    
Loop time of 433.024 on 1 procs for 10000 steps with 104 atoms

Performance: 1.995 ns/day, 12.028 hours/ns, 23.093 timesteps/s, 2.402 katom-step/s
100.4% CPU use with 1 MPI tasks x 1 OpenMP threads

MPI task timing breakdown:
Section |  min time  |  avg time  |  max time  |%varavg| %total
---------------------------------------------------------------
Pair    | 432.44     | 432.44     | 432.44     |   0.0 | 99.87
Neigh   | 0.18183    | 0.18183    | 0.18183    |   0.0 |  0.04
Comm    | 0.12322    | 0.12322    | 0.12322    |   0.0 |  0.03
Output  | 0.0058861  | 0.0058861  | 0.0058861  |   0.0 |  0.00
Modify  | 0.22293    | 0.22293    | 0.22293    |   0.0 |  0.05
Other   |            | 0.04713    |            |       |  0.01

Nlocal:            104 ave         104 max         104 min
Histogram: 1 0 0 0 0 0 0 0 0 0
Nghost:           1200 ave        1200 max        1200 min
Histogram: 1 0 0 0 0 0 0 0 0 0
Neighs:              0 ave           0 max           0 min
Histogram: 1 0 0 0 0 0 0 0 0 0
FullNghs:         7816 ave        7816 max        7816 min
Histogram: 1 0 0 0 0 0 0 0 0 0

Total # of neighbors = 7816
Ave neighs/atom = 75.153846
Neighbor list builds = 254
Dangerous builds = 0

unfix 123

# Compute initial state

variable thermostat equal 0
include potential.mod
# NOTE: This script can be modified for different pair styles
# See in.elastic for more info.

# we must undefine any fix ave/* fix before using reset_timestep
if "$(is_defined(fix,avp))" then "unfix avp"
reset_timestep 0


# Choose potential
# pair_style	sw
# pair_coeff * * Si.sw Si

pair_style	deepmd tob14_deepmd_compress.pb
pair_coeff	* * Ca Si O H

atom_modify sort 0 0.0
#kspace_style	ewald 1.0e-6# Setup neighbor style

#neighbor 2.0 bin
neigh_modify once no every 1 delay 0 check yes



# Setup output

fix avp all ave/time  ${nevery} ${nrepeat} ${nfreq} c_thermo_press mode vector
fix avp all ave/time  10 ${nrepeat} ${nfreq} c_thermo_press mode vector
fix avp all ave/time  10 10 ${nfreq} c_thermo_press mode vector
fix avp all ave/time  10 10 100 c_thermo_press mode vector

#min_style cg
#minimize 1.0e-15 1.0e-15 10000 10000 #设置能量最小化

thermo		${nthermo}
thermo		100
thermo_style custom step temp pe press f_avp[1] f_avp[2] f_avp[3] f_avp[4] f_avp[5] f_avp[6]
thermo_modify norm no

# Setup MD

timestep ${timestep}
timestep 0.001
fix 4 all nve
if "${thermostat} == 1" then    "fix 5 all langevin ${temp} ${temp} ${tdamp} ${seed}"


run ${nequil}
run 1000
Generated 0 of 6 mixed pair_coeff terms from geometric mixing rule
Per MPI rank memory allocation (min/avg/max) = 3.097 | 3.097 | 3.097 Mbytes
   Step          Temp          PotEng         Press         f_avp[1]       f_avp[2]       f_avp[3]       f_avp[4]       f_avp[5]       f_avp[6]   
         0   350.37235     -661.94414     -8459.6505      0              0              0              0              0              0            
       100   288.82462     -661.10326      8220.5746     -3430.7155     -401.14622     -12184.462     -3485.0126      1702.3755     -427.73788    
       200   282.89937     -661.03271      15851.013      2714.2165      2419.3483      6067.0763     -5689.838       1613.9514      3063.9665    
       300   300.64052     -661.26233     -8182.5486     -8076.1895      4426.3617     -2362.3823     -3783.3855      5994.0601      242.22312    
       400   299.11146     -661.23931      1579.5185     -2204.8856      1325.9746      2909.3683     -5372.026       2934.5992     -688.75792    
       500   279.6986      -660.98558     -8374.53       -3403.2127      263.26605     -1665.075      -5279.6773      4495.8593     -1625.076     
       600   311.10973     -661.40333      1637.8387     -1031.5768      4863.7634      4683.2858     -9092.4833     -2768.5393      3555.8022    
       700   313.38067     -661.43391     -6084.9319     -5285.3584     -1655.7363     -184.4805      -7638.2063      1569.8269      6338.4034    
       800   293.14958     -661.1612       6972.3508     -1445.6314      442.6279      -3822.5416     -7962.243      -355.01333      3607.6457    
       900   292.80129     -661.15292      1779.6917     -23.864893      3223.5435      6827.1833     -4969.1855      3360.6566     -412.44703    
      1000   278.36022     -660.95821      2590.2503     -3215.378      -162.39626     -3213.3679     -6319.1817      4678.8014      761.11503    
Loop time of 42.8721 on 1 procs for 1000 steps with 104 atoms

Performance: 2.015 ns/day, 11.909 hours/ns, 23.325 timesteps/s, 2.426 katom-step/s
100.3% CPU use with 1 MPI tasks x 1 OpenMP threads

MPI task timing breakdown:
Section |  min time  |  avg time  |  max time  |%varavg| %total
---------------------------------------------------------------
Pair    | 42.843     | 42.843     | 42.843     |   0.0 | 99.93
Neigh   | 0.0087919  | 0.0087919  | 0.0087919  |   0.0 |  0.02
Comm    | 0.010644   | 0.010644   | 0.010644   |   0.0 |  0.02
Output  | 0.00053098 | 0.00053098 | 0.00053098 |   0.0 |  0.00
Modify  | 0.0041914  | 0.0041914  | 0.0041914  |   0.0 |  0.01
Other   |            | 0.005075   |            |       |  0.01

Nlocal:            104 ave         104 max         104 min
Histogram: 1 0 0 0 0 0 0 0 0 0
Nghost:           1195 ave        1195 max        1195 min
Histogram: 1 0 0 0 0 0 0 0 0 0
Neighs:              0 ave           0 max           0 min
Histogram: 1 0 0 0 0 0 0 0 0 0
FullNghs:         7866 ave        7866 max        7866 min
Histogram: 1 0 0 0 0 0 0 0 0 0

Total # of neighbors = 7866
Ave neighs/atom = 75.634615
Neighbor list builds = 14
Dangerous builds = 0

if "${adiabatic} == 1" then "variable thermostat equal 0" else "variable thermostat equal 1"
variable thermostat equal 1

print ${thermostat}
print 1
1

include potential.mod
# NOTE: This script can be modified for different pair styles
# See in.elastic for more info.

# we must undefine any fix ave/* fix before using reset_timestep
if "$(is_defined(fix,avp))" then "unfix avp"
unfix avp
reset_timestep 0


# Choose potential
# pair_style	sw
# pair_coeff * * Si.sw Si

pair_style	deepmd tob14_deepmd_compress.pb
pair_coeff	* * Ca Si O H

atom_modify sort 0 0.0
#kspace_style	ewald 1.0e-6# Setup neighbor style

#neighbor 2.0 bin
neigh_modify once no every 1 delay 0 check yes



# Setup output

fix avp all ave/time  ${nevery} ${nrepeat} ${nfreq} c_thermo_press mode vector
fix avp all ave/time  10 ${nrepeat} ${nfreq} c_thermo_press mode vector
fix avp all ave/time  10 10 ${nfreq} c_thermo_press mode vector
fix avp all ave/time  10 10 100 c_thermo_press mode vector

#min_style cg
#minimize 1.0e-15 1.0e-15 10000 10000 #设置能量最小化

thermo		${nthermo}
thermo		100
thermo_style custom step temp pe press f_avp[1] f_avp[2] f_avp[3] f_avp[4] f_avp[5] f_avp[6]
WARNING: New thermo_style command, previous thermo_modify settings will be lost (src/output.cpp:903)
thermo_modify norm no

# Setup MD

timestep ${timestep}
timestep 0.001
fix 4 all nve
if "${thermostat} == 1" then    "fix 5 all langevin ${temp} ${temp} ${tdamp} ${seed}"
fix 5 all langevin ${temp} ${temp} ${tdamp} ${seed}
fix 5 all langevin 300 ${temp} ${tdamp} ${seed}
fix 5 all langevin 300 300 ${tdamp} ${seed}
fix 5 all langevin 300 300 0.01 ${seed}
fix 5 all langevin 300 300 0.01 123457


run ${nrun}
run 300
Generated 0 of 6 mixed pair_coeff terms from geometric mixing rule
Per MPI rank memory allocation (min/avg/max) = 3.097 | 3.097 | 3.097 Mbytes
   Step          Temp          PotEng         Press         f_avp[1]       f_avp[2]       f_avp[3]       f_avp[4]       f_avp[5]       f_avp[6]   
         0   278.36022     -660.95821      2590.2503      0              0              0              0              0              0            
       100   287.67707     -661.56079      5776.9296     -1685.4898     -4498.1877     -1510.3057     -6519.3489      1711.337      -3322.2339    
       200   290.98284     -660.67025      2399.6173     -291.47794     -371.96482      1378.6357     -4576.7031      7108.5663     -3011.7235    
       300   312.02035     -660.78577     -1688.5297     -4414.3437      3009.6546     -5201.8651     -574.73764      2823.9249      3307.9837    
Loop time of 13.1168 on 1 procs for 300 steps with 104 atoms

Performance: 1.976 ns/day, 12.145 hours/ns, 22.871 timesteps/s, 2.379 katom-step/s
100.1% CPU use with 1 MPI tasks x 1 OpenMP threads

MPI task timing breakdown:
Section |  min time  |  avg time  |  max time  |%varavg| %total
---------------------------------------------------------------
Pair    | 13.103     | 13.103     | 13.103     |   0.0 | 99.89
Neigh   | 0.001686   | 0.001686   | 0.001686   |   0.0 |  0.01
Comm    | 0.0040779  | 0.0040779  | 0.0040779  |   0.0 |  0.03
Output  | 0.00017181 | 0.00017181 | 0.00017181 |   0.0 |  0.00
Modify  | 0.0063818  | 0.0063818  | 0.0063818  |   0.0 |  0.05
Other   |            | 0.001968   |            |       |  0.02

Nlocal:            104 ave         104 max         104 min
Histogram: 1 0 0 0 0 0 0 0 0 0
Nghost:           1182 ave        1182 max        1182 min
Histogram: 1 0 0 0 0 0 0 0 0 0
Neighs:              0 ave           0 max           0 min
Histogram: 1 0 0 0 0 0 0 0 0 0
FullNghs:         7854 ave        7854 max        7854 min
Histogram: 1 0 0 0 0 0 0 0 0 0

Total # of neighbors = 7854
Ave neighs/atom = 75.519231
Neighbor list builds = 2
Dangerous builds = 0

variable pxx0 equal f_avp[1]
variable pyy0 equal f_avp[2]
variable pzz0 equal f_avp[3]
variable pxy0 equal f_avp[4]
variable pxz0 equal f_avp[5]
variable pyz0 equal f_avp[6]

variable tmp equal lx
variable lx0 equal ${tmp}
variable lx0 equal 6.75716240259352
variable tmp equal ly
variable ly0 equal ${tmp}
variable ly0 equal 6.21487781891147
variable tmp equal lz
variable lz0 equal ${tmp}
variable lz0 equal 28.791676609896

# These formulas define the derivatives w.r.t. strain components
# Constants uses $, variables use v_
variable d1 equal -(v_pxx1-${pxx0})/(v_delta/v_len0)*${cfac}
variable d1 equal -(v_pxx1--4414.34373864053)/(v_delta/v_len0)*${cfac}
variable d1 equal -(v_pxx1--4414.34373864053)/(v_delta/v_len0)*0.0001
variable d2 equal -(v_pyy1-${pyy0})/(v_delta/v_len0)*${cfac}
variable d2 equal -(v_pyy1-3009.65458840715)/(v_delta/v_len0)*${cfac}
variable d2 equal -(v_pyy1-3009.65458840715)/(v_delta/v_len0)*0.0001
variable d3 equal -(v_pzz1-${pzz0})/(v_delta/v_len0)*${cfac}
variable d3 equal -(v_pzz1--5201.8650554309)/(v_delta/v_len0)*${cfac}
variable d3 equal -(v_pzz1--5201.8650554309)/(v_delta/v_len0)*0.0001
variable d4 equal -(v_pyz1-${pyz0})/(v_delta/v_len0)*${cfac}
variable d4 equal -(v_pyz1-3307.98365859659)/(v_delta/v_len0)*${cfac}
variable d4 equal -(v_pyz1-3307.98365859659)/(v_delta/v_len0)*0.0001
variable d5 equal -(v_pxz1-${pxz0})/(v_delta/v_len0)*${cfac}
variable d5 equal -(v_pxz1-2823.92487039299)/(v_delta/v_len0)*${cfac}
variable d5 equal -(v_pxz1-2823.92487039299)/(v_delta/v_len0)*0.0001
variable d6 equal -(v_pxy1-${pxy0})/(v_delta/v_len0)*${cfac}
variable d6 equal -(v_pxy1--574.737644139524)/(v_delta/v_len0)*${cfac}
variable d6 equal -(v_pxy1--574.737644139524)/(v_delta/v_len0)*0.0001

# Write restart
write_restart restart.equil
System init for write_restart ...
Generated 0 of 6 mixed pair_coeff terms from geometric mixing rule

# uxx Perturbation

variable dir equal 1
include displace.mod
# NOTE: This script should not need to be
# modified. See in.elastic for more info.
#
# Find which reference length to use

if "${dir} == 1" then    "variable len0 equal ${lx0}"
variable len0 equal ${lx0}
variable len0 equal 6.75716240259352
if "${dir} == 2" then    "variable len0 equal ${ly0}"
if "${dir} == 3" then    "variable len0 equal ${lz0}"
if "${dir} == 4" then    "variable len0 equal ${lz0}"
if "${dir} == 5" then    "variable len0 equal ${lz0}"
if "${dir} == 6" then    "variable len0 equal ${ly0}"

# Reset box and simulation parameters

clear
OMP_NUM_THREADS environment is not set. Defaulting to 1 thread. (src/comm.cpp:98)
  using 1 OpenMP thread(s) per MPI task
Loaded 1 plugins from /home/zkm/anaconda3/envs/deepmd/lib/deepmd_lmp
box tilt large

The 'box' command has been removed and will be ignored

read_restart restart.equil
Reading restart file ...
  restart file = 2 Aug 2023, LAMMPS = 2 Aug 2023
  restoring atom style atomic from restart
  triclinic box = (0.098469545 0.06906824 -0.18437048) to (6.8556319 6.2839461 28.607306) with tilt (2.7624616 0.011373801 0.2136093)
  1 by 1 by 1 MPI processor grid
Summary of lammps deepmd module ...
  >>> Info of deepmd-kit:
  installed to:       /home/zkm/anaconda3/envs/deepmd
  source:             v2.2.7
  source branch:       HEAD
  source commit:      839f4fe7
  source commit at:   2023-10-27 21:10:24 +0800
  surpport model ver.:1.1 
  build variant:      cuda
  build with tf inc:  /home/zkm/anaconda3/envs/deepmd/include;/home/zkm/anaconda3/envs/deepmd/include
  build with tf lib:  /home/zkm/anaconda3/envs/deepmd/lib/libtensorflow_cc.so
  set tf intra_op_parallelism_threads: 0
  set tf inter_op_parallelism_threads: 0
  >>> Info of lammps module:
  use deepmd-kit at:  /home/zkm/anaconda3/envs/deepmd  restoring pair style deepmd from restart
  104 atoms
  read_restart CPU = 0.001 seconds
include potential.mod
# NOTE: This script can be modified for different pair styles
# See in.elastic for more info.

# we must undefine any fix ave/* fix before using reset_timestep
if "$(is_defined(fix,avp))" then "unfix avp"
reset_timestep 0


# Choose potential
# pair_style	sw
# pair_coeff * * Si.sw Si

pair_style	deepmd tob14_deepmd_compress.pb
pair_coeff	* * Ca Si O H

atom_modify sort 0 0.0
#kspace_style	ewald 1.0e-6# Setup neighbor style

#neighbor 2.0 bin
neigh_modify once no every 1 delay 0 check yes



# Setup output

fix avp all ave/time  ${nevery} ${nrepeat} ${nfreq} c_thermo_press mode vector
fix avp all ave/time  10 ${nrepeat} ${nfreq} c_thermo_press mode vector
fix avp all ave/time  10 10 ${nfreq} c_thermo_press mode vector
fix avp all ave/time  10 10 100 c_thermo_press mode vector

#min_style cg
#minimize 1.0e-15 1.0e-15 10000 10000 #设置能量最小化

thermo		${nthermo}
thermo		100
thermo_style custom step temp pe press f_avp[1] f_avp[2] f_avp[3] f_avp[4] f_avp[5] f_avp[6]
thermo_modify norm no

# Setup MD

timestep ${timestep}
timestep 0.001
fix 4 all nve
if "${thermostat} == 1" then    "fix 5 all langevin ${temp} ${temp} ${tdamp} ${seed}"
fix 5 all langevin ${temp} ${temp} ${tdamp} ${seed}
fix 5 all langevin 300 ${temp} ${tdamp} ${seed}
fix 5 all langevin 300 300 ${tdamp} ${seed}
fix 5 all langevin 300 300 0.01 ${seed}
fix 5 all langevin 300 300 0.01 123457



# Negative deformation

variable delta equal -${up}*${len0}
variable delta equal -0.02*${len0}
variable delta equal -0.02*6.75716240259352
variable deltaxy equal -${up}*xy
variable deltaxy equal -0.02*xy
variable deltaxz equal -${up}*xz
variable deltaxz equal -0.02*xz
variable deltayz equal -${up}*yz
variable deltayz equal -0.02*yz
if "${dir} == 1" then    "change_box all x delta 0 ${delta} xy delta ${deltaxy} xz delta ${deltaxz} remap units box"
change_box all x delta 0 ${delta} xy delta ${deltaxy} xz delta ${deltaxz} remap units box
change_box all x delta 0 -0.13514324805187 xy delta ${deltaxy} xz delta ${deltaxz} remap units box
change_box all x delta 0 -0.13514324805187 xy delta -0.0552492323085879 xz delta ${deltaxz} remap units box
change_box all x delta 0 -0.13514324805187 xy delta -0.0552492323085879 xz delta -0.000227476019256272 remap units box
Changing box ...
  triclinic box = (0.098469545 0.06906824 -0.18437048) to (6.7204887 6.2839461 28.607306) with tilt (2.7624616 0.011373801 0.2136093)
  triclinic box = (0.098469545 0.06906824 -0.18437048) to (6.7204887 6.2839461 28.607306) with tilt (2.7072124 0.011373801 0.2136093)
  triclinic box = (0.098469545 0.06906824 -0.18437048) to (6.7204887 6.2839461 28.607306) with tilt (2.7072124 0.011146325 0.2136093)
if "${dir} == 2" then    "change_box all y delta 0 ${delta} yz delta ${deltayz} remap units box"
if "${dir} == 3" then    "change_box all z delta 0 ${delta} remap units box"
if "${dir} == 4" then    "change_box all yz delta ${delta} remap units box"
if "${dir} == 5" then    "change_box all xz delta ${delta} remap units box"
if "${dir} == 6" then    "change_box all xy delta ${delta} remap units box"

# Run MD

run ${nequil}
run 1000
Generated 0 of 6 mixed pair_coeff terms from geometric mixing rule
Neighbor list info ...
  update: every = 1 steps, delay = 0 steps, check = yes
  max neighbors/atom: 2000, page size: 100000
  master list distance cutoff = 6
  ghost atom cutoff = 6
  binsize = 3, bins = 4 3 10
  1 neighbor lists, perpetual/occasional/extra = 1 0 0
  (1) pair deepmd, perpetual
      attributes: full, newton on
      pair build: full/bin/atomonly
      stencil: full/bin/3d
      bin: standard
Per MPI rank memory allocation (min/avg/max) = 2.972 | 2.972 | 2.972 Mbytes
   Step          Temp          PotEng         Press         f_avp[1]       f_avp[2]       f_avp[3]       f_avp[4]       f_avp[5]       f_avp[6]   
         0   312.02035     -660.6162       26633.099      0              0              0              0              0              0            
       100   283.47137     -660.74919      20455.556      19464.985      12357.813      9785.6448     -7720.6326      4338.3006     -2074.9318    
       200   285.86391     -660.23926      11736.978      18134.231      12302.486      10033.318     -6001.9552      6885.8155     -4224.3868    
       300   311.74237     -660.41326      10193.184      12979.969      13547.562      2061.1315     -578.52811      3485.3456      2230.2528    
       400   314.77315     -660.75436      25345.786      20342.027      16088.767      12912.27      -1775.2415      4966.8069      1735.772     
       500   309.50679     -660.72628      10019.272      10977.117      9907.8438      8408.5497     -2407.8539      2974.9087      1653.7809    
       600   305.61164     -660.55252      12907.672      14140.125      10369.127      4630.277       1737.1166      5738.3285     -1127.3895    
       700   321.42588     -660.78514      12888.398      20269.043      15513.035      15192.162     -1715.2505      4422.1072     -2326.4945    
       800   277.10232     -661.10342      4740.7485      19764.064      15041.046      11319.708     -5170.0769      6227.5771     -895.05701    
       900   315.39102     -661.01488      10009.794      15303.113      10648.302      9925.1584     -2263.5019      5594.9351     -101.86153    
      1000   328.29637     -661.4027       7975.0004      17149.613      13429.361      15731.51      -3128.5387      6851.4917      1550.9664    
Loop time of 43.1518 on 1 procs for 1000 steps with 104 atoms

Performance: 2.002 ns/day, 11.987 hours/ns, 23.174 timesteps/s, 2.410 katom-step/s
100.3% CPU use with 1 MPI tasks x 1 OpenMP threads

MPI task timing breakdown:
Section |  min time  |  avg time  |  max time  |%varavg| %total
---------------------------------------------------------------
Pair    | 43.106     | 43.106     | 43.106     |   0.0 | 99.89
Neigh   | 0.0034122  | 0.0034122  | 0.0034122  |   0.0 |  0.01
Comm    | 0.014325   | 0.014325   | 0.014325   |   0.0 |  0.03
Output  | 0.00066003 | 0.00066003 | 0.00066003 |   0.0 |  0.00
Modify  | 0.021285   | 0.021285   | 0.021285   |   0.0 |  0.05
Other   |            | 0.006531   |            |       |  0.02

Nlocal:            104 ave         104 max         104 min
Histogram: 1 0 0 0 0 0 0 0 0 0
Nghost:           1186 ave        1186 max        1186 min
Histogram: 1 0 0 0 0 0 0 0 0 0
Neighs:              0 ave           0 max           0 min
Histogram: 1 0 0 0 0 0 0 0 0 0
FullNghs:         8024 ave        8024 max        8024 min
Histogram: 1 0 0 0 0 0 0 0 0 0

Total # of neighbors = 8024
Ave neighs/atom = 77.153846
Neighbor list builds = 4
Dangerous builds = 0
include potential.mod
# NOTE: This script can be modified for different pair styles
# See in.elastic for more info.

# we must undefine any fix ave/* fix before using reset_timestep
if "$(is_defined(fix,avp))" then "unfix avp"
unfix avp
reset_timestep 0


# Choose potential
# pair_style	sw
# pair_coeff * * Si.sw Si

pair_style	deepmd tob14_deepmd_compress.pb
pair_coeff	* * Ca Si O H

atom_modify sort 0 0.0
#kspace_style	ewald 1.0e-6# Setup neighbor style

#neighbor 2.0 bin
neigh_modify once no every 1 delay 0 check yes



# Setup output

fix avp all ave/time  ${nevery} ${nrepeat} ${nfreq} c_thermo_press mode vector
fix avp all ave/time  10 ${nrepeat} ${nfreq} c_thermo_press mode vector
fix avp all ave/time  10 10 ${nfreq} c_thermo_press mode vector
fix avp all ave/time  10 10 100 c_thermo_press mode vector

#min_style cg
#minimize 1.0e-15 1.0e-15 10000 10000 #设置能量最小化

thermo		${nthermo}
thermo		100
thermo_style custom step temp pe press f_avp[1] f_avp[2] f_avp[3] f_avp[4] f_avp[5] f_avp[6]
WARNING: New thermo_style command, previous thermo_modify settings will be lost (src/output.cpp:903)
thermo_modify norm no

# Setup MD

timestep ${timestep}
timestep 0.001
fix 4 all nve
if "${thermostat} == 1" then    "fix 5 all langevin ${temp} ${temp} ${tdamp} ${seed}"
fix 5 all langevin ${temp} ${temp} ${tdamp} ${seed}
fix 5 all langevin 300 ${temp} ${tdamp} ${seed}
fix 5 all langevin 300 300 ${tdamp} ${seed}
fix 5 all langevin 300 300 0.01 ${seed}
fix 5 all langevin 300 300 0.01 123457


run ${nrun}
run 300
Generated 0 of 6 mixed pair_coeff terms from geometric mixing rule
Per MPI rank memory allocation (min/avg/max) = 2.972 | 2.972 | 2.972 Mbytes
   Step          Temp          PotEng         Press         f_avp[1]       f_avp[2]       f_avp[3]       f_avp[4]       f_avp[5]       f_avp[6]   
         0   328.29637     -661.4027       7975.0004      0              0              0              0              0              0            
       100   293.99071     -661.11254      18477.654      14542.525      7315.2243      13960.428     -8400.5092      6373.5752     -1548.7951    
       200   283.40782     -660.46825      9064.5545      17201.722      9793.9227      13236.917     -5810.4572      7973.199      -3146.9677    
       300   303.37309     -660.59014      10680.498      11650.022      11065.159      2296.8976     -1511.8082      4327.9814      1537.4829    
Loop time of 13.0094 on 1 procs for 300 steps with 104 atoms

Performance: 1.992 ns/day, 12.046 hours/ns, 23.060 timesteps/s, 2.398 katom-step/s
100.6% CPU use with 1 MPI tasks x 1 OpenMP threads

MPI task timing breakdown:
Section |  min time  |  avg time  |  max time  |%varavg| %total
---------------------------------------------------------------
Pair    | 12.995     | 12.995     | 12.995     |   0.0 | 99.89
Neigh   | 0.00084864 | 0.00084864 | 0.00084864 |   0.0 |  0.01
Comm    | 0.0043828  | 0.0043828  | 0.0043828  |   0.0 |  0.03
Output  | 0.00018906 | 0.00018906 | 0.00018906 |   0.0 |  0.00
Modify  | 0.0063833  | 0.0063833  | 0.0063833  |   0.0 |  0.05
Other   |            | 0.002102   |            |       |  0.02

Nlocal:            104 ave         104 max         104 min
Histogram: 1 0 0 0 0 0 0 0 0 0
Nghost:           1228 ave        1228 max        1228 min
Histogram: 1 0 0 0 0 0 0 0 0 0
Neighs:              0 ave           0 max           0 min
Histogram: 1 0 0 0 0 0 0 0 0 0
FullNghs:         7998 ave        7998 max        7998 min
Histogram: 1 0 0 0 0 0 0 0 0 0

Total # of neighbors = 7998
Ave neighs/atom = 76.903846
Neighbor list builds = 1
Dangerous builds = 0

# Obtain new stress tensor

variable pxx1 equal f_avp[1]
variable pyy1 equal f_avp[2]
variable pzz1 equal f_avp[3]
variable pxy1 equal f_avp[4]
variable pxz1 equal f_avp[5]
variable pyz1 equal f_avp[6]

# Compute elastic constant from pressure tensor

variable C1neg equal ${d1}
variable C1neg equal 80.3218270661809
variable C2neg equal ${d2}
variable C2neg equal 40.2775207773959
variable C3neg equal ${d3}
variable C3neg equal 37.4938131355099
variable C4neg equal ${d4}
variable C4neg equal -8.85250367280488
variable C5neg equal ${d5}
variable C5neg equal 7.52028262034612
variable C6neg equal ${d6}
variable C6neg equal -4.68535281342979

# Reset box and simulation parameters

clear
OMP_NUM_THREADS environment is not set. Defaulting to 1 thread. (src/comm.cpp:98)
  using 1 OpenMP thread(s) per MPI task
Loaded 1 plugins from /home/zkm/anaconda3/envs/deepmd/lib/deepmd_lmp
box tilt large

The 'box' command has been removed and will be ignored

read_restart restart.equil
Reading restart file ...
  restart file = 2 Aug 2023, LAMMPS = 2 Aug 2023
  restoring atom style atomic from restart
  triclinic box = (0.098469545 0.06906824 -0.18437048) to (6.8556319 6.2839461 28.607306) with tilt (2.7624616 0.011373801 0.2136093)
  1 by 1 by 1 MPI processor grid
Summary of lammps deepmd module ...
  >>> Info of deepmd-kit:
  installed to:       /home/zkm/anaconda3/envs/deepmd
  source:             v2.2.7
  source branch:       HEAD
  source commit:      839f4fe7
  source commit at:   2023-10-27 21:10:24 +0800
  surpport model ver.:1.1 
  build variant:      cuda
  build with tf inc:  /home/zkm/anaconda3/envs/deepmd/include;/home/zkm/anaconda3/envs/deepmd/include
  build with tf lib:  /home/zkm/anaconda3/envs/deepmd/lib/libtensorflow_cc.so
  set tf intra_op_parallelism_threads: 0
  set tf inter_op_parallelism_threads: 0
  >>> Info of lammps module:
  use deepmd-kit at:  /home/zkm/anaconda3/envs/deepmd  restoring pair style deepmd from restart
  104 atoms
  read_restart CPU = 0.001 seconds
include potential.mod
# NOTE: This script can be modified for different pair styles
# See in.elastic for more info.

# we must undefine any fix ave/* fix before using reset_timestep
if "$(is_defined(fix,avp))" then "unfix avp"
reset_timestep 0


# Choose potential
# pair_style	sw
# pair_coeff * * Si.sw Si

pair_style	deepmd tob14_deepmd_compress.pb
pair_coeff	* * Ca Si O H

atom_modify sort 0 0.0
#kspace_style	ewald 1.0e-6# Setup neighbor style

#neighbor 2.0 bin
neigh_modify once no every 1 delay 0 check yes



# Setup output

fix avp all ave/time  ${nevery} ${nrepeat} ${nfreq} c_thermo_press mode vector
fix avp all ave/time  10 ${nrepeat} ${nfreq} c_thermo_press mode vector
fix avp all ave/time  10 10 ${nfreq} c_thermo_press mode vector
fix avp all ave/time  10 10 100 c_thermo_press mode vector

#min_style cg
#minimize 1.0e-15 1.0e-15 10000 10000 #设置能量最小化

thermo		${nthermo}
thermo		100
thermo_style custom step temp pe press f_avp[1] f_avp[2] f_avp[3] f_avp[4] f_avp[5] f_avp[6]
thermo_modify norm no

# Setup MD

timestep ${timestep}
timestep 0.001
fix 4 all nve
if "${thermostat} == 1" then    "fix 5 all langevin ${temp} ${temp} ${tdamp} ${seed}"
fix 5 all langevin ${temp} ${temp} ${tdamp} ${seed}
fix 5 all langevin 300 ${temp} ${tdamp} ${seed}
fix 5 all langevin 300 300 ${tdamp} ${seed}
fix 5 all langevin 300 300 0.01 ${seed}
fix 5 all langevin 300 300 0.01 123457



# Positive deformation

variable delta equal ${up}*${len0}
variable delta equal 0.02*${len0}
variable delta equal 0.02*6.75716240259352
variable deltaxy equal ${up}*xy
variable deltaxy equal 0.02*xy
variable deltaxz equal ${up}*xz
variable deltaxz equal 0.02*xz
variable deltayz equal ${up}*yz
variable deltayz equal 0.02*yz
if "${dir} == 1" then    "change_box all x delta 0 ${delta} xy delta ${deltaxy} xz delta ${deltaxz} remap units box"
change_box all x delta 0 ${delta} xy delta ${deltaxy} xz delta ${deltaxz} remap units box
change_box all x delta 0 0.13514324805187 xy delta ${deltaxy} xz delta ${deltaxz} remap units box
change_box all x delta 0 0.13514324805187 xy delta 0.0552492323085879 xz delta ${deltaxz} remap units box
change_box all x delta 0 0.13514324805187 xy delta 0.0552492323085879 xz delta 0.000227476019256272 remap units box
Changing box ...
  triclinic box = (0.098469545 0.06906824 -0.18437048) to (6.9907752 6.2839461 28.607306) with tilt (2.7624616 0.011373801 0.2136093)
  triclinic box = (0.098469545 0.06906824 -0.18437048) to (6.9907752 6.2839461 28.607306) with tilt (2.8177108 0.011373801 0.2136093)
  triclinic box = (0.098469545 0.06906824 -0.18437048) to (6.9907752 6.2839461 28.607306) with tilt (2.8177108 0.011601277 0.2136093)
if "${dir} == 2" then    "change_box all y delta 0 ${delta} yz delta ${deltayz} remap units box"
if "${dir} == 3" then    "change_box all z delta 0 ${delta} remap units box"
if "${dir} == 4" then    "change_box all yz delta ${delta} remap units box"
if "${dir} == 5" then    "change_box all xz delta ${delta} remap units box"
if "${dir} == 6" then    "change_box all xy delta ${delta} remap units box"

# Run MD

run ${nequil}
run 1000
Generated 0 of 6 mixed pair_coeff terms from geometric mixing rule
Neighbor list info ...
  update: every = 1 steps, delay = 0 steps, check = yes
  max neighbors/atom: 2000, page size: 100000
  master list distance cutoff = 6
  ghost atom cutoff = 6
  binsize = 3, bins = 4 3 10
  1 neighbor lists, perpetual/occasional/extra = 1 0 0
  (1) pair deepmd, perpetual
      attributes: full, newton on
      pair build: full/bin/atomonly
      stencil: full/bin/3d
      bin: standard
Per MPI rank memory allocation (min/avg/max) = 2.97 | 2.97 | 2.97 Mbytes
   Step          Temp          PotEng         Press         f_avp[1]       f_avp[2]       f_avp[3]       f_avp[4]       f_avp[5]       f_avp[6]   
         0   312.02035     -660.25499     -26786.375      0              0              0              0              0              0            
       100   278.72339     -660.5268      -3037.5841     -23309.863     -9751.343      -6599.5693     -4824.1048      4084.7272     -1555.9349    
       200   283.98523     -659.95265     -10476.902     -18874.068     -5686.6897     -1402.0076     -4198.5647      6761.5042     -3109.9774    
       300   310.33677     -660.13897     -10652.443     -24162.251     -4332.8058     -7935.1058      1016.0083      2897.1554      2786.8252    
       400   312.82009     -660.41722      2882.5021     -16028.997     -1774.0617      3006.3666     -139.19197      5065.4863      2357.8883    
       500   307.14572     -660.52203     -13106.551     -25497.326     -6397.3954     -2270.5238     -942.56631      3402.5038      2304.4482    
       600   307.19648     -660.41789     -8026.0927     -22884.789     -5786.3293     -4735.8238      2697.4526      5929.978      -599.97595    
       700   325.75199     -660.56231     -8694.1898     -17035.999     -1098.9862      4892.545      -725.06617      3469.7707     -2411.8177    
       800   284.84058     -660.967       -17151.159     -15915.271     -2061.0021      1425.5908     -3402.7213      6427.2167     -1018.138     
       900   317.1592      -660.88731     -12131.56      -23536.357     -6667.2825      556.52732     -61.834683      5012.4573     -451.161      
      1000   327.54416     -661.17601     -10089.578     -16601.437     -2545.0114      6308.287      -1830.3504      6343.1863      1128.1774    
Loop time of 47.1631 on 1 procs for 1000 steps with 104 atoms

Performance: 1.832 ns/day, 13.101 hours/ns, 21.203 timesteps/s, 2.205 katom-step/s
100.2% CPU use with 1 MPI tasks x 1 OpenMP threads

MPI task timing breakdown:
Section |  min time  |  avg time  |  max time  |%varavg| %total
---------------------------------------------------------------
Pair    | 47.115     | 47.115     | 47.115     |   0.0 | 99.90
Neigh   | 0.0059161  | 0.0059161  | 0.0059161  |   0.0 |  0.01
Comm    | 0.014034   | 0.014034   | 0.014034   |   0.0 |  0.03
Output  | 0.0005964  | 0.0005964  | 0.0005964  |   0.0 |  0.00
Modify  | 0.021158   | 0.021158   | 0.021158   |   0.0 |  0.04
Other   |            | 0.00685    |            |       |  0.01

Nlocal:            104 ave         104 max         104 min
Histogram: 1 0 0 0 0 0 0 0 0 0
Nghost:           1174 ave        1174 max        1174 min
Histogram: 1 0 0 0 0 0 0 0 0 0
Neighs:              0 ave           0 max           0 min
Histogram: 1 0 0 0 0 0 0 0 0 0
FullNghs:         7672 ave        7672 max        7672 min
Histogram: 1 0 0 0 0 0 0 0 0 0

Total # of neighbors = 7672
Ave neighs/atom = 73.769231
Neighbor list builds = 7
Dangerous builds = 0
include potential.mod
# NOTE: This script can be modified for different pair styles
# See in.elastic for more info.

# we must undefine any fix ave/* fix before using reset_timestep
if "$(is_defined(fix,avp))" then "unfix avp"
unfix avp
reset_timestep 0


# Choose potential
# pair_style	sw
# pair_coeff * * Si.sw Si

pair_style	deepmd tob14_deepmd_compress.pb
pair_coeff	* * Ca Si O H

atom_modify sort 0 0.0
#kspace_style	ewald 1.0e-6# Setup neighbor style

#neighbor 2.0 bin
neigh_modify once no every 1 delay 0 check yes



# Setup output

fix avp all ave/time  ${nevery} ${nrepeat} ${nfreq} c_thermo_press mode vector
fix avp all ave/time  10 ${nrepeat} ${nfreq} c_thermo_press mode vector
fix avp all ave/time  10 10 ${nfreq} c_thermo_press mode vector
fix avp all ave/time  10 10 100 c_thermo_press mode vector

#min_style cg
#minimize 1.0e-15 1.0e-15 10000 10000 #设置能量最小化

thermo		${nthermo}
thermo		100
thermo_style custom step temp pe press f_avp[1] f_avp[2] f_avp[3] f_avp[4] f_avp[5] f_avp[6]
WARNING: New thermo_style command, previous thermo_modify settings will be lost (src/output.cpp:903)
thermo_modify norm no

# Setup MD

timestep ${timestep}
timestep 0.001
fix 4 all nve
if "${thermostat} == 1" then    "fix 5 all langevin ${temp} ${temp} ${tdamp} ${seed}"
fix 5 all langevin ${temp} ${temp} ${tdamp} ${seed}
fix 5 all langevin 300 ${temp} ${tdamp} ${seed}
fix 5 all langevin 300 300 ${tdamp} ${seed}
fix 5 all langevin 300 300 0.01 ${seed}
fix 5 all langevin 300 300 0.01 123457


run ${nrun}
run 300
Generated 0 of 6 mixed pair_coeff terms from geometric mixing rule
Per MPI rank memory allocation (min/avg/max) = 2.971 | 2.971 | 2.971 Mbytes
   Step          Temp          PotEng         Press         f_avp[1]       f_avp[2]       f_avp[3]       f_avp[4]       f_avp[5]       f_avp[6]   
         0   327.54416     -661.17601     -10089.578      0              0              0              0              0              0            
       100   291.33069     -660.88448     -612.16306     -18960.948     -10211.465      3820.3929     -6967.6369      5632.1598     -1257.038     
       200   282.09636     -660.08607     -9941.6412     -16188.11      -5334.1083      4504.3215     -4900.8157      7641.8641     -2890.8       
       300   301.96759     -660.33237     -8970.5532     -23116.895     -5158.3518     -5578.6231     -57.65916       3841.2935      2356.1769    
Loop time of 14.1079 on 1 procs for 300 steps with 104 atoms

Performance: 1.837 ns/day, 13.063 hours/ns, 21.265 timesteps/s, 2.212 katom-step/s
100.0% CPU use with 1 MPI tasks x 1 OpenMP threads

MPI task timing breakdown:
Section |  min time  |  avg time  |  max time  |%varavg| %total
---------------------------------------------------------------
Pair    | 14.094     | 14.094     | 14.094     |   0.0 | 99.90
Neigh   | 0.00083576 | 0.00083576 | 0.00083576 |   0.0 |  0.01
Comm    | 0.0042601  | 0.0042601  | 0.0042601  |   0.0 |  0.03
Output  | 0.0002235  | 0.0002235  | 0.0002235  |   0.0 |  0.00
Modify  | 0.0063928  | 0.0063928  | 0.0063928  |   0.0 |  0.05
Other   |            | 0.002074   |            |       |  0.01

Nlocal:            104 ave         104 max         104 min
Histogram: 1 0 0 0 0 0 0 0 0 0
Nghost:           1186 ave        1186 max        1186 min
Histogram: 1 0 0 0 0 0 0 0 0 0
Neighs:              0 ave           0 max           0 min
Histogram: 1 0 0 0 0 0 0 0 0 0
FullNghs:         7662 ave        7662 max        7662 min
Histogram: 1 0 0 0 0 0 0 0 0 0

Total # of neighbors = 7662
Ave neighs/atom = 73.673077
Neighbor list builds = 1
Dangerous builds = 0

# Obtain new stress tensor

variable pxx1 equal f_avp[1]
variable pyy1 equal f_avp[2]
variable pzz1 equal f_avp[3]
variable pxy1 equal f_avp[4]
variable pxz1 equal f_avp[5]
variable pyz1 equal f_avp[6]

# Compute elastic constant from pressure tensor

variable C1pos equal ${d1}
variable C1pos equal 93.5127558688331
variable C2pos equal ${d2}
variable C2pos equal 40.8400320272877
variable C3pos equal ${d3}
variable C3pos equal 1.88379026007461
variable C4pos equal ${d4}
variable C4pos equal 4.75903371175492
variable C5pos equal ${d5}
variable C5pos equal -5.08684299489882
variable C6pos equal ${d6}
variable C6pos equal -2.58539242222924

# Combine positive and negative

variable C1${dir} equal 0.5*(${C1neg}+${C1pos})
variable C11 equal 0.5*(${C1neg}+${C1pos})
variable C11 equal 0.5*(80.3218270661809+${C1pos})
variable C11 equal 0.5*(80.3218270661809+93.5127558688331)
variable C2${dir} equal 0.5*(${C2neg}+${C2pos})
variable C21 equal 0.5*(${C2neg}+${C2pos})
variable C21 equal 0.5*(40.2775207773959+${C2pos})
variable C21 equal 0.5*(40.2775207773959+40.8400320272877)
variable C3${dir} equal 0.5*(${C3neg}+${C3pos})
variable C31 equal 0.5*(${C3neg}+${C3pos})
variable C31 equal 0.5*(37.4938131355099+${C3pos})
variable C31 equal 0.5*(37.4938131355099+1.88379026007461)
variable C4${dir} equal 0.5*(${C4neg}+${C4pos})
variable C41 equal 0.5*(${C4neg}+${C4pos})
variable C41 equal 0.5*(-8.85250367280488+${C4pos})
variable C41 equal 0.5*(-8.85250367280488+4.75903371175492)
variable C5${dir} equal 0.5*(${C5neg}+${C5pos})
variable C51 equal 0.5*(${C5neg}+${C5pos})
variable C51 equal 0.5*(7.52028262034612+${C5pos})
variable C51 equal 0.5*(7.52028262034612+-5.08684299489882)
variable C6${dir} equal 0.5*(${C6neg}+${C6pos})
variable C61 equal 0.5*(${C6neg}+${C6pos})
variable C61 equal 0.5*(-4.68535281342979+${C6pos})
variable C61 equal 0.5*(-4.68535281342979+-2.58539242222924)

# Delete dir to make sure it is not reused

variable dir delete

# uyy Perturbation

variable dir equal 2
include displace.mod
# NOTE: This script should not need to be
# modified. See in.elastic for more info.
#
# Find which reference length to use

if "${dir} == 1" then    "variable len0 equal ${lx0}"
if "${dir} == 2" then    "variable len0 equal ${ly0}"
variable len0 equal ${ly0}
variable len0 equal 6.21487781891147
if "${dir} == 3" then    "variable len0 equal ${lz0}"
if "${dir} == 4" then    "variable len0 equal ${lz0}"
if "${dir} == 5" then    "variable len0 equal ${lz0}"
if "${dir} == 6" then    "variable len0 equal ${ly0}"

# Reset box and simulation parameters

clear
OMP_NUM_THREADS environment is not set. Defaulting to 1 thread. (src/comm.cpp:98)
  using 1 OpenMP thread(s) per MPI task
Loaded 1 plugins from /home/zkm/anaconda3/envs/deepmd/lib/deepmd_lmp
box tilt large

The 'box' command has been removed and will be ignored

read_restart restart.equil
Reading restart file ...
  restart file = 2 Aug 2023, LAMMPS = 2 Aug 2023
  restoring atom style atomic from restart
  triclinic box = (0.098469545 0.06906824 -0.18437048) to (6.8556319 6.2839461 28.607306) with tilt (2.7624616 0.011373801 0.2136093)
  1 by 1 by 1 MPI processor grid
Summary of lammps deepmd module ...
  >>> Info of deepmd-kit:
  installed to:       /home/zkm/anaconda3/envs/deepmd
  source:             v2.2.7
  source branch:       HEAD
  source commit:      839f4fe7
  source commit at:   2023-10-27 21:10:24 +0800
  surpport model ver.:1.1 
  build variant:      cuda
  build with tf inc:  /home/zkm/anaconda3/envs/deepmd/include;/home/zkm/anaconda3/envs/deepmd/include
  build with tf lib:  /home/zkm/anaconda3/envs/deepmd/lib/libtensorflow_cc.so
  set tf intra_op_parallelism_threads: 0
  set tf inter_op_parallelism_threads: 0
  >>> Info of lammps module:
  use deepmd-kit at:  /home/zkm/anaconda3/envs/deepmd  restoring pair style deepmd from restart
  104 atoms
  read_restart CPU = 0.001 seconds
include potential.mod
# NOTE: This script can be modified for different pair styles
# See in.elastic for more info.

# we must undefine any fix ave/* fix before using reset_timestep
if "$(is_defined(fix,avp))" then "unfix avp"
reset_timestep 0


# Choose potential
# pair_style	sw
# pair_coeff * * Si.sw Si

pair_style	deepmd tob14_deepmd_compress.pb
pair_coeff	* * Ca Si O H

atom_modify sort 0 0.0
#kspace_style	ewald 1.0e-6# Setup neighbor style

#neighbor 2.0 bin
neigh_modify once no every 1 delay 0 check yes



# Setup output

fix avp all ave/time  ${nevery} ${nrepeat} ${nfreq} c_thermo_press mode vector
fix avp all ave/time  10 ${nrepeat} ${nfreq} c_thermo_press mode vector
fix avp all ave/time  10 10 ${nfreq} c_thermo_press mode vector
fix avp all ave/time  10 10 100 c_thermo_press mode vector

#min_style cg
#minimize 1.0e-15 1.0e-15 10000 10000 #设置能量最小化

thermo		${nthermo}
thermo		100
thermo_style custom step temp pe press f_avp[1] f_avp[2] f_avp[3] f_avp[4] f_avp[5] f_avp[6]
thermo_modify norm no

# Setup MD

timestep ${timestep}
timestep 0.001
fix 4 all nve
if "${thermostat} == 1" then    "fix 5 all langevin ${temp} ${temp} ${tdamp} ${seed}"
fix 5 all langevin ${temp} ${temp} ${tdamp} ${seed}
fix 5 all langevin 300 ${temp} ${tdamp} ${seed}
fix 5 all langevin 300 300 ${tdamp} ${seed}
fix 5 all langevin 300 300 0.01 ${seed}
fix 5 all langevin 300 300 0.01 123457



# Negative deformation

variable delta equal -${up}*${len0}
variable delta equal -0.02*${len0}
variable delta equal -0.02*6.21487781891147
variable deltaxy equal -${up}*xy
variable deltaxy equal -0.02*xy
variable deltaxz equal -${up}*xz
variable deltaxz equal -0.02*xz
variable deltayz equal -${up}*yz
variable deltayz equal -0.02*yz
if "${dir} == 1" then    "change_box all x delta 0 ${delta} xy delta ${deltaxy} xz delta ${deltaxz} remap units box"
if "${dir} == 2" then    "change_box all y delta 0 ${delta} yz delta ${deltayz} remap units box"
change_box all y delta 0 ${delta} yz delta ${deltayz} remap units box
change_box all y delta 0 -0.124297556378229 yz delta ${deltayz} remap units box
change_box all y delta 0 -0.124297556378229 yz delta -0.00427218604691734 remap units box
Changing box ...
  triclinic box = (0.098469545 0.06906824 -0.18437048) to (6.8556319 6.1596485 28.607306) with tilt (2.7624616 0.011373801 0.2136093)
  triclinic box = (0.098469545 0.06906824 -0.18437048) to (6.8556319 6.1596485 28.607306) with tilt (2.7624616 0.011373801 0.20933712)
if "${dir} == 3" then    "change_box all z delta 0 ${delta} remap units box"
if "${dir} == 4" then    "change_box all yz delta ${delta} remap units box"
if "${dir} == 5" then    "change_box all xz delta ${delta} remap units box"
if "${dir} == 6" then    "change_box all xy delta ${delta} remap units box"

# Run MD

run ${nequil}
run 1000
Generated 0 of 6 mixed pair_coeff terms from geometric mixing rule
Neighbor list info ...
  update: every = 1 steps, delay = 0 steps, check = yes
  max neighbors/atom: 2000, page size: 100000
  master list distance cutoff = 6
  ghost atom cutoff = 6
  binsize = 3, bins = 4 3 10
  1 neighbor lists, perpetual/occasional/extra = 1 0 0
  (1) pair deepmd, perpetual
      attributes: full, newton on
      pair build: full/bin/atomonly
      stencil: full/bin/3d
      bin: standard
Per MPI rank memory allocation (min/avg/max) = 2.972 | 2.972 | 2.972 Mbytes
   Step          Temp          PotEng         Press         f_avp[1]       f_avp[2]       f_avp[3]       f_avp[4]       f_avp[5]       f_avp[6]   
         0   312.02035     -660.33482      26371.552      0              0              0              0              0              0            
       100   281.61376     -660.66336      23176.541      8214.1855      28186.084      11760.193     -9197.0871      4605.5877     -2145.0338    
       200   285.9842      -660.12215      12752.079      7943.9096      27254.582      11651.467     -7176.2753      7688.9714     -4261.7693    
       300   311.7528      -660.3409       11618.499      2115.2165      26810.379      3399.7016     -1403.5639      4402.5211      2297.8592    
       400   317.00535     -660.67599      26590.25       10159.767      28668.906      14366.62      -3222.9306      5845.5496      1834.8507    
       500   310.19388     -660.67659      11255.332      530.41294      23842.772      9941.1546     -3787.619       3395.8478      2300.2124    
       600   308.97309     -660.48784      13307.944      2947.8067      22896.313      5809.4931      246.53911      6533.792      -648.91775    
       700   322.97205     -660.67573      14147.472      9346.8859      28474.725      16153.653     -3453.8396      4774.1519     -2607.8185    
       800   276.0091      -660.97846      5511.6721      9882.9844      28255.234      11696.46      -7053.7312      6856.9214     -413.28886    
       900   319.4338      -660.91839      10211.504      3735.1337      23279.984      10148.768     -3490.7313      6154.2189      69.137722    
      1000   329.4573      -661.31847      9696.8649      6985.2429      27137.166      16625.591     -4737.7733      7351.7651      1856.7753    
Loop time of 46.3376 on 1 procs for 1000 steps with 104 atoms

Performance: 1.865 ns/day, 12.872 hours/ns, 21.581 timesteps/s, 2.244 katom-step/s
100.4% CPU use with 1 MPI tasks x 1 OpenMP threads

MPI task timing breakdown:
Section |  min time  |  avg time  |  max time  |%varavg| %total
---------------------------------------------------------------
Pair    | 46.29      | 46.29      | 46.29      |   0.0 | 99.90
Neigh   | 0.0043292  | 0.0043292  | 0.0043292  |   0.0 |  0.01
Comm    | 0.014304   | 0.014304   | 0.014304   |   0.0 |  0.03
Output  | 0.0006404  | 0.0006404  | 0.0006404  |   0.0 |  0.00
Modify  | 0.021864   | 0.021864   | 0.021864   |   0.0 |  0.05
Other   |            | 0.00696    |            |       |  0.02

Nlocal:            104 ave         104 max         104 min
Histogram: 1 0 0 0 0 0 0 0 0 0
Nghost:           1183 ave        1183 max        1183 min
Histogram: 1 0 0 0 0 0 0 0 0 0
Neighs:              0 ave           0 max           0 min
Histogram: 1 0 0 0 0 0 0 0 0 0
FullNghs:         8008 ave        8008 max        8008 min
Histogram: 1 0 0 0 0 0 0 0 0 0

Total # of neighbors = 8008
Ave neighs/atom = 77
Neighbor list builds = 5
Dangerous builds = 0
include potential.mod
# NOTE: This script can be modified for different pair styles
# See in.elastic for more info.

# we must undefine any fix ave/* fix before using reset_timestep
if "$(is_defined(fix,avp))" then "unfix avp"
unfix avp
reset_timestep 0


# Choose potential
# pair_style	sw
# pair_coeff * * Si.sw Si

pair_style	deepmd tob14_deepmd_compress.pb
pair_coeff	* * Ca Si O H

atom_modify sort 0 0.0
#kspace_style	ewald 1.0e-6# Setup neighbor style

#neighbor 2.0 bin
neigh_modify once no every 1 delay 0 check yes



# Setup output

fix avp all ave/time  ${nevery} ${nrepeat} ${nfreq} c_thermo_press mode vector
fix avp all ave/time  10 ${nrepeat} ${nfreq} c_thermo_press mode vector
fix avp all ave/time  10 10 ${nfreq} c_thermo_press mode vector
fix avp all ave/time  10 10 100 c_thermo_press mode vector

#min_style cg
#minimize 1.0e-15 1.0e-15 10000 10000 #设置能量最小化

thermo		${nthermo}
thermo		100
thermo_style custom step temp pe press f_avp[1] f_avp[2] f_avp[3] f_avp[4] f_avp[5] f_avp[6]
WARNING: New thermo_style command, previous thermo_modify settings will be lost (src/output.cpp:903)
thermo_modify norm no

# Setup MD

timestep ${timestep}
timestep 0.001
fix 4 all nve
if "${thermostat} == 1" then    "fix 5 all langevin ${temp} ${temp} ${tdamp} ${seed}"
fix 5 all langevin ${temp} ${temp} ${tdamp} ${seed}
fix 5 all langevin 300 ${temp} ${tdamp} ${seed}
fix 5 all langevin 300 300 ${tdamp} ${seed}
fix 5 all langevin 300 300 0.01 ${seed}
fix 5 all langevin 300 300 0.01 123457


run ${nrun}
run 300
Generated 0 of 6 mixed pair_coeff terms from geometric mixing rule
Per MPI rank memory allocation (min/avg/max) = 2.972 | 2.972 | 2.972 Mbytes
   Step          Temp          PotEng         Press         f_avp[1]       f_avp[2]       f_avp[3]       f_avp[4]       f_avp[5]       f_avp[6]   
         0   329.4573      -661.31847      9696.8649      0              0              0              0              0              0            
       100   290.74363     -661.00237      20294.259      4686.0997      20519.561      14350.878     -9722.6841      6613.383      -572.65375    
       200   284.06388     -660.35825      10177.253      7834.7038      24083.266      14087.212     -6653.7963      8509.2281     -2739.5999    
       300   303.99942     -660.50118      11557.363      1130.7167      23848.175      2995.1414     -2245.96        4979.4436      1566.8706    
Loop time of 14.1645 on 1 procs for 300 steps with 104 atoms

Performance: 1.830 ns/day, 13.115 hours/ns, 21.180 timesteps/s, 2.203 katom-step/s
100.4% CPU use with 1 MPI tasks x 1 OpenMP threads

MPI task timing breakdown:
Section |  min time  |  avg time  |  max time  |%varavg| %total
---------------------------------------------------------------
Pair    | 14.151     | 14.151     | 14.151     |   0.0 | 99.90
Neigh   | 0.00085444 | 0.00085444 | 0.00085444 |   0.0 |  0.01
Comm    | 0.0042727  | 0.0042727  | 0.0042727  |   0.0 |  0.03
Output  | 0.00017658 | 0.00017658 | 0.00017658 |   0.0 |  0.00
Modify  | 0.0065743  | 0.0065743  | 0.0065743  |   0.0 |  0.05
Other   |            | 0.002119   |            |       |  0.01

Nlocal:            104 ave         104 max         104 min
Histogram: 1 0 0 0 0 0 0 0 0 0
Nghost:           1231 ave        1231 max        1231 min
Histogram: 1 0 0 0 0 0 0 0 0 0
Neighs:              0 ave           0 max           0 min
Histogram: 1 0 0 0 0 0 0 0 0 0
FullNghs:         7998 ave        7998 max        7998 min
Histogram: 1 0 0 0 0 0 0 0 0 0

Total # of neighbors = 7998
Ave neighs/atom = 76.903846
Neighbor list builds = 1
Dangerous builds = 0

# Obtain new stress tensor

variable pxx1 equal f_avp[1]
variable pyy1 equal f_avp[2]
variable pzz1 equal f_avp[3]
variable pxy1 equal f_avp[4]
variable pxz1 equal f_avp[5]
variable pyz1 equal f_avp[6]

# Compute elastic constant from pressure tensor

variable C1neg equal ${d1}
variable C1neg equal 27.725302365363
variable C2neg equal ${d2}
variable C2neg equal 104.192602709591
variable C3neg equal ${d3}
variable C3neg equal 40.9850325179276
variable C4neg equal ${d4}
variable C4neg equal -8.70556527478773
variable C5neg equal ${d5}
variable C5neg equal 10.7775938756054
variable C6neg equal ${d6}
variable C6neg equal -8.35611166681421

# Reset box and simulation parameters

clear
[...]
  using 1 OpenMP thread(s) per MPI task
Loaded 1 plugins from /home/zkm/anaconda3/envs/deepmd/lib/deepmd_lmp
box tilt large

The 'box' command has been removed and will be ignored

read_restart restart.equil
Reading restart file ...
  restart file = 2 Aug 2023, LAMMPS = 2 Aug 2023
  restoring atom style atomic from restart
  triclinic box = (0.098469545 0.06906824 -0.18437048) to (6.8556319 6.2839461 28.607306) with tilt (2.7624616 0.011373801 0.2136093)
  1 by 1 by 1 MPI processor grid
Summary of lammps deepmd module ...
  >>> Info of deepmd-kit:
  installed to:       /home/zkm/anaconda3/envs/deepmd
  source:             v2.2.7
  source branch:       HEAD
  source commit:      839f4fe7
  source commit at:   2023-10-27 21:10:24 +0800
  surpport model ver.:1.1 
  build variant:      cuda
  build with tf inc:  /home/zkm/anaconda3/envs/deepmd/include;/home/zkm/anaconda3/envs/deepmd/include
  build with tf lib:  /home/zkm/anaconda3/envs/deepmd/lib/libtensorflow_cc.so
  set tf intra_op_parallelism_threads: 0
  set tf inter_op_parallelism_threads: 0
  >>> Info of lammps module:
  use deepmd-kit at:  /home/zkm/anaconda3/envs/deepmd  restoring pair style deepmd from restart
  104 atoms
  read_restart CPU = 0.001 seconds
include potential.mod
# NOTE: This script can be modified for different pair styles
# See in.elastic for more info.

# we must undefine any fix ave/* fix before using reset_timestep
if "$(is_defined(fix,avp))" then "unfix avp"
reset_timestep 0


# Choose potential
# pair_style	sw
# pair_coeff * * Si.sw Si

pair_style	deepmd tob14_deepmd_compress.pb
pair_coeff	* * Ca Si O H

atom_modify sort 0 0.0
#kspace_style	ewald 1.0e-6# Setup neighbor style

#neighbor 2.0 bin
neigh_modify once no every 1 delay 0 check yes



# Setup output

fix avp all ave/time  ${nevery} ${nrepeat} ${nfreq} c_thermo_press mode vector
fix avp all ave/time  10 ${nrepeat} ${nfreq} c_thermo_press mode vector
fix avp all ave/time  10 10 ${nfreq} c_thermo_press mode vector
fix avp all ave/time  10 10 100 c_thermo_press mode vector

#min_style cg
#minimize 1.0e-15 1.0e-15 10000 10000 #设置能量最小化

thermo		${nthermo}
thermo		100
thermo_style custom step temp pe press f_avp[1] f_avp[2] f_avp[3] f_avp[4] f_avp[5] f_avp[6]
thermo_modify norm no

# Setup MD

timestep ${timestep}
timestep 0.001
fix 4 all nve
if "${thermostat} == 1" then    "fix 5 all langevin ${temp} ${temp} ${tdamp} ${seed}"
fix 5 all langevin ${temp} ${temp} ${tdamp} ${seed}
fix 5 all langevin 300 ${temp} ${tdamp} ${seed}
fix 5 all langevin 300 300 ${tdamp} ${seed}
fix 5 all langevin 300 300 0.01 ${seed}
fix 5 all langevin 300 300 0.01 123457



# Positive deformation

variable delta equal ${up}*${len0}
variable delta equal 0.02*${len0}
variable delta equal 0.02*6.21487781891147
variable deltaxy equal ${up}*xy
variable deltaxy equal 0.02*xy
variable deltaxz equal ${up}*xz
variable deltaxz equal 0.02*xz
variable deltayz equal ${up}*yz
variable deltayz equal 0.02*yz
if "${dir} == 1" then    "change_box all x delta 0 ${delta} xy delta ${deltaxy} xz delta ${deltaxz} remap units box"
if "${dir} == 2" then    "change_box all y delta 0 ${delta} yz delta ${deltayz} remap units box"
if "${dir} == 3" then    "change_box all z delta 0 ${delta} remap units box"
if "${dir} == 4" then    "change_box all yz delta ${delta} remap units box"
if "${dir} == 5" then    "change_box all xz delta ${delta} remap units box"
if "${dir} == 6" then    "change_box all xy delta ${delta} remap units box"
change_box all xy delta ${delta} remap units box
change_box all xy delta 0.124297556378229 remap units box
Changing box ...
  triclinic box = (0.098469545 0.06906824 -0.18437048) to (6.8556319 6.2839461 28.607306) with tilt (2.8867592 0.011373801 0.2136093)

# Run MD

run ${nequil}
run 1000
Generated 0 of 6 mixed pair_coeff terms from geometric mixing rule
Neighbor list info ...
  update: every = 1 steps, delay = 0 steps, check = yes
  max neighbors/atom: 2000, page size: 100000
  master list distance cutoff = 6
  ghost atom cutoff = 6
  binsize = 3, bins = 4 3 10
  1 neighbor lists, perpetual/occasional/extra = 1 0 0
  (1) pair deepmd, perpetual
      attributes: full, newton on
      pair build: full/bin/atomonly
      stencil: full/bin/3d
      bin: standard
Per MPI rank memory allocation (min/avg/max) = 2.972 | 2.972 | 2.972 Mbytes
   Step          Temp          PotEng         Press         f_avp[1]       f_avp[2]       f_avp[3]       f_avp[4]       f_avp[5]       f_avp[6]   
         0   312.02035     -660.67723     -587.73663      0              0              0              0              0              0            
       100   281.65431     -660.6506       9431.0995     -2412.4602      3823.0659      3194.0799     -14153.14       4426.565      -1823.7235    
       200   283.12674     -660.13276      969.55495     -1561.6676      4917.0008      4954.8481     -11941.12       6769.3344     -3759.5655    
       300   312.15866     -660.32023      479.86622     -6489.6013      6380.2995     -2081.348      -6231.0717      3388.2318      2266.6481    
       400   312.76016     -660.60252      14890.657      962.73061      9130.141       8783.0759     -7433.7029      5318.815       1929.3943    
       500   308.55393     -660.61967     -1987.0086     -8364.102       3676.2988      3554.3235     -7959.4537      3333.2045      2174.4962    
       600   308.59981     -660.55089      3444.4319     -5630.4579      4495.3641      813.54815     -3836.3579      5699.3618     -827.63613    
       700   325.06552     -660.71405      2403.6492      458.62557      8765.515       10304.642     -7229.3123      3643.0011     -2518.0513    
       800   282.25449     -661.02959     -6118.2834      388.04275      7896.9101      7560.2257     -10059.786      5659.6553     -987.47054    
       900   313.80378     -661.00809     -405.53319     -4930.0182      4083.1875      6604.5629     -7250.0529      4563.6977     -49.987317    
      1000   326.78057     -661.311       -317.27355     -555.48681      7712.3021      12487.587     -8223.6804      6038.8965      1199.4025    
Loop time of 47.347 on 1 procs for 1000 steps with 104 atoms

Performance: 1.825 ns/day, 13.152 hours/ns, 21.121 timesteps/s, 2.197 katom-step/s
100.3% CPU use with 1 MPI tasks x 1 OpenMP threads

MPI task timing breakdown:
Section |  min time  |  avg time  |  max time  |%varavg| %total
---------------------------------------------------------------
Pair    | 47.299     | 47.299     | 47.299     |   0.0 | 99.90
Neigh   | 0.0050864  | 0.0050864  | 0.0050864  |   0.0 |  0.01
Comm    | 0.014288   | 0.014288   | 0.014288   |   0.0 |  0.03
Output  | 0.00065072 | 0.00065072 | 0.00065072 |   0.0 |  0.00
Modify  | 0.021147   | 0.021147   | 0.021147   |   0.0 |  0.04
Other   |            | 0.007072   |            |       |  0.01

Nlocal:            104 ave         104 max         104 min
Histogram: 1 0 0 0 0 0 0 0 0 0
Nghost:           1174 ave        1174 max        1174 min
Histogram: 1 0 0 0 0 0 0 0 0 0
Neighs:              0 ave           0 max           0 min
Histogram: 1 0 0 0 0 0 0 0 0 0
FullNghs:         7852 ave        7852 max        7852 min
Histogram: 1 0 0 0 0 0 0 0 0 0

Total # of neighbors = 7852
Ave neighs/atom = 75.5
Neighbor list builds = 6
Dangerous builds = 0
include potential.mod
# NOTE: This script can be modified for different pair styles
# See in.elastic for more info.

# we must undefine any fix ave/* fix before using reset_timestep
if "$(is_defined(fix,avp))" then "unfix avp"
unfix avp
reset_timestep 0


# Choose potential
# pair_style	sw
# pair_coeff * * Si.sw Si

pair_style	deepmd tob14_deepmd_compress.pb
pair_coeff	* * Ca Si O H

atom_modify sort 0 0.0
#kspace_style	ewald 1.0e-6# Setup neighbor style

#neighbor 2.0 bin
neigh_modify once no every 1 delay 0 check yes



# Setup output

fix avp all ave/time  ${nevery} ${nrepeat} ${nfreq} c_thermo_press mode vector
fix avp all ave/time  10 ${nrepeat} ${nfreq} c_thermo_press mode vector
fix avp all ave/time  10 10 ${nfreq} c_thermo_press mode vector
fix avp all ave/time  10 10 100 c_thermo_press mode vector

#min_style cg
#minimize 1.0e-15 1.0e-15 10000 10000 #设置能量最小化

thermo		${nthermo}
thermo		100
thermo_style custom step temp pe press f_avp[1] f_avp[2] f_avp[3] f_avp[4] f_avp[5] f_avp[6]
WARNING: New thermo_style command, previous thermo_modify settings will be lost (src/output.cpp:903)
thermo_modify norm no

# Setup MD

timestep ${timestep}
timestep 0.001
fix 4 all nve
if "${thermostat} == 1" then    "fix 5 all langevin ${temp} ${temp} ${tdamp} ${seed}"
fix 5 all langevin ${temp} ${temp} ${tdamp} ${seed}
fix 5 all langevin 300 ${temp} ${tdamp} ${seed}
fix 5 all langevin 300 300 ${tdamp} ${seed}
fix 5 all langevin 300 300 0.01 ${seed}
fix 5 all langevin 300 300 0.01 123457


run ${nrun}
run 300
Generated 0 of 6 mixed pair_coeff terms from geometric mixing rule
Per MPI rank memory allocation (min/avg/max) = 2.972 | 2.972 | 2.972 Mbytes
   Step          Temp          PotEng         Press         f_avp[1]       f_avp[2]       f_avp[3]       f_avp[4]       f_avp[5]       f_avp[6]   
         0   326.78057     -661.311       -317.27355      0              0              0              0              0              0            
       100   291.7446      -661.05233      9084.1679     -3734.3738      759.26825      10328.636     -13426.857      5690.8651     -1748.2092    
       200   279.01576     -660.31965      307.81435     -1280.8834      3575.0779      10835.632     -11515.945      7323.1774     -3279.2786    
       300   304.24041     -660.49472      1469.3083     -6339.3006      4751.5983      326.10929     -6406.2325      3903.161       1679.98      
Loop time of 14.405 on 1 procs for 300 steps with 104 atoms

Performance: 1.799 ns/day, 13.338 hours/ns, 20.826 timesteps/s, 2.166 katom-step/s
100.5% CPU use with 1 MPI tasks x 1 OpenMP threads

MPI task timing breakdown:
Section |  min time  |  avg time  |  max time  |%varavg| %total
---------------------------------------------------------------
Pair    | 14.391     | 14.391     | 14.391     |   0.0 | 99.90
Neigh   | 0.00089792 | 0.00089792 | 0.00089792 |   0.0 |  0.01
Comm    | 0.0042817  | 0.0042817  | 0.0042817  |   0.0 |  0.03
Output  | 0.00017232 | 0.00017232 | 0.00017232 |   0.0 |  0.00
Modify  | 0.0064081  | 0.0064081  | 0.0064081  |   0.0 |  0.04
Other   |            | 0.002138   |            |       |  0.01

Nlocal:            104 ave         104 max         104 min
Histogram: 1 0 0 0 0 0 0 0 0 0
Nghost:           1219 ave        1219 max        1219 min
Histogram: 1 0 0 0 0 0 0 0 0 0
Neighs:              0 ave           0 max           0 min
Histogram: 1 0 0 0 0 0 0 0 0 0
FullNghs:         7844 ave        7844 max        7844 min
Histogram: 1 0 0 0 0 0 0 0 0 0

Total # of neighbors = 7844
Ave neighs/atom = 75.423077
Neighbor list builds = 1
Dangerous builds = 0

# Obtain new stress tensor

variable pxx1 equal f_avp[1]
variable pyy1 equal f_avp[2]
variable pzz1 equal f_avp[3]
variable pxy1 equal f_avp[4]
variable pxz1 equal f_avp[5]
variable pyz1 equal f_avp[6]

# Compute elastic constant from pressure tensor

variable C1pos equal ${d1}
variable C1pos equal 9.62478445807763
variable C2pos equal ${d2}
variable C2pos equal -8.70971842710818
variable C3pos equal ${d3}
variable C3pos equal -27.6398717218559
variable C4pos equal ${d4}
variable C4pos equal 8.14001840123478
variable C5pos equal ${d5}
variable C5pos equal -5.39618085740317
variable C6pos equal ${d6}
variable C6pos equal 29.1574745030304

# Combine positive and negative

variable C1${dir} equal 0.5*(${C1neg}+${C1pos})
variable C16 equal 0.5*(${C1neg}+${C1pos})
variable C16 equal 0.5*(-16.7205748652249+${C1pos})
variable C16 equal 0.5*(-16.7205748652249+9.62478445807763)
variable C2${dir} equal 0.5*(${C2neg}+${C2pos})
variable C26 equal 0.5*(${C2neg}+${C2pos})
variable C26 equal 0.5*(-11.4165429322352+${C2pos})
variable C26 equal 0.5*(-11.4165429322352+-8.70971842710818)
variable C3${dir} equal 0.5*(${C3neg}+${C3pos})
variable C36 equal 0.5*(${C3neg}+${C3pos})
variable C36 equal 0.5*(8.81823214744123+${C3pos})
variable C36 equal 0.5*(8.81823214744123+-27.6398717218559)
variable C4${dir} equal 0.5*(${C4neg}+${C4pos})
variable C46 equal 0.5*(${C4neg}+${C4pos})
variable C46 equal 0.5*(-6.81655030755857+${C4pos})
variable C46 equal 0.5*(-6.81655030755857+8.14001840123478)
variable C5${dir} equal 0.5*(${C5neg}+${C5pos})
variable C56 equal 0.5*(${C5neg}+${C5pos})
variable C56 equal 0.5*(6.78252321373167+${C5pos})
variable C56 equal 0.5*(6.78252321373167+-5.39618085740317)
variable C6${dir} equal 0.5*(${C6neg}+${C6pos})
variable C66 equal 0.5*(${C6neg}+${C6pos})
variable C66 equal 0.5*(32.0879396642669+${C6pos})
variable C66 equal 0.5*(32.0879396642669+29.1574745030304)

# Delete dir to make sure it is not reused

variable dir delete

# Output final values

variable C11all equal ${C11}
variable C11all equal 86.917291467507
variable C22all equal ${C22}
variable C22all equal 98.4989548479678
variable C33all equal ${C33}
variable C33all equal 57.7799048131015

variable C12all equal 0.5*(${C12}+${C21})
variable C12all equal 0.5*(38.607539923715+${C21})
variable C12all equal 0.5*(38.607539923715+40.5587764023418)
variable C13all equal 0.5*(${C13}+${C31})
variable C13all equal 0.5*(17.9549675741032+${C31})
variable C13all equal 0.5*(17.9549675741032+19.6888016977923)
variable C23all equal 0.5*(${C23}+${C32})
variable C23all equal 0.5*(24.4409625960339+${C32})
variable C23all equal 0.5*(24.4409625960339+21.1129209820958)

variable C44all equal ${C44}
variable C44all equal 20.7987632276568
variable C55all equal ${C55}
variable C55all equal 11.2901748507043
variable C66all equal ${C66}
variable C66all equal 30.6227070836486

variable C14all equal 0.5*(${C14}+${C41})
variable C14all equal 0.5*(-3.55662526110795+${C41})
variable C14all equal 0.5*(-3.55662526110795+-2.04673498052498)
variable C15all equal 0.5*(${C15}+${C51})
variable C15all equal 0.5*(-0.6307279496903+${C51})
variable C15all equal 0.5*(-0.6307279496903+1.21671981272365)
variable C16all equal 0.5*(${C16}+${C61})
variable C16all equal 0.5*(-3.54789520357364+${C61})
variable C16all equal 0.5*(-3.54789520357364+-3.63537261782951)

variable C24all equal 0.5*(${C24}+${C42})
variable C24all equal 0.5*(-2.85884422598015+${C42})
variable C24all equal 0.5*(-2.85884422598015+-1.17630226413458)
variable C25all equal 0.5*(${C25}+${C52})
variable C25all equal 0.5*(3.2314148500076+${C52})
variable C25all equal 0.5*(3.2314148500076+4.4569840961435)
variable C26all equal 0.5*(${C26}+${C62})
variable C26all equal 0.5*(-10.0631306796717+${C62})
variable C26all equal 0.5*(-10.0631306796717+-9.56719409022361)

variable C34all equal 0.5*(${C34}+${C43})
variable C34all equal 0.5*(1.43650132252465+${C43})
variable C34all equal 0.5*(1.43650132252465+1.42097593914365)
variable C35all equal 0.5*(${C35}+${C53})
variable C35all equal 0.5*(8.35175114857055+${C53})
variable C35all equal 0.5*(8.35175114857055+3.70248047480952)
variable C36all equal 0.5*(${C36}+${C63})
variable C36all equal 0.5*(-9.41081978720733+${C63})
variable C36all equal 0.5*(-9.41081978720733+-4.16644122578916)

variable C45all equal 0.5*(${C45}+${C54})
variable C45all equal 0.5*(-7.7056567752924+${C54})
variable C45all equal 0.5*(-7.7056567752924+-8.6859956619976)
variable C46all equal 0.5*(${C46}+${C64})
variable C46all equal 0.5*(0.661734046838105+${C64})
variable C46all equal 0.5*(0.661734046838105+0.891562765684007)
variable C56all equal 0.5*(${C56}+${C65})
variable C56all equal 0.5*(0.69317117816425+${C65})
variable C56all equal 0.5*(0.69317117816425+2.18585434134743)


print "========================================="
=========================================
print "Components of the Elastic Constant Tensor"
Components of the Elastic Constant Tensor
print "========================================="
=========================================

print "Elastic Constant C11all = ${C11all} ${cunits}"
Elastic Constant C11all = 86.917291467507 GPa
print "Elastic Constant C22all = ${C22all} ${cunits}"
Elastic Constant C22all = 98.4989548479678 GPa
print "Elastic Constant C33all = ${C33all} ${cunits}"
Elastic Constant C33all = 57.7799048131015 GPa

print "Elastic Constant C12all = ${C12all} ${cunits}"
Elastic Constant C12all = 39.5831581630284 GPa
print "Elastic Constant C13all = ${C13all} ${cunits}"
Elastic Constant C13all = 18.8218846359478 GPa
print "Elastic Constant C23all = ${C23all} ${cunits}"
Elastic Constant C23all = 22.7769417890648 GPa

print "Elastic Constant C44all = ${C44all} ${cunits}"
Elastic Constant C44all = 20.7987632276568 GPa
print "Elastic Constant C55all = ${C55all} ${cunits}"
Elastic Constant C55all = 11.2901748507043 GPa
print "Elastic Constant C66all = ${C66all} ${cunits}"
Elastic Constant C66all = 30.6227070836486 GPa

print "Elastic Constant C14all = ${C14all} ${cunits}"
Elastic Constant C14all = -2.80168012081647 GPa
print "Elastic Constant C15all = ${C15all} ${cunits}"
Elastic Constant C15all = 0.292995931516675 GPa
print "Elastic Constant C16all = ${C16all} ${cunits}"
Elastic Constant C16all = -3.59163391070158 GPa

print "Elastic Constant C24all = ${C24all} ${cunits}"
Elastic Constant C24all = -2.01757324505737 GPa
print "Elastic Constant C25all = ${C25all} ${cunits}"
Elastic Constant C25all = 3.84419947307555 GPa
print "Elastic Constant C26all = ${C26all} ${cunits}"
Elastic Constant C26all = -9.81516238494766 GPa

print "Elastic Constant C34all = ${C34all} ${cunits}"
Elastic Constant C34all = 1.42873863083415 GPa
print "Elastic Constant C35all = ${C35all} ${cunits}"
Elastic Constant C35all = 6.02711581169003 GPa
print "Elastic Constant C36all = ${C36all} ${cunits}"
Elastic Constant C36all = -6.78863050649825 GPa

print "Elastic Constant C45all = ${C45all} ${cunits}"
Elastic Constant C45all = -8.195826218645 GPa
print "Elastic Constant C46all = ${C46all} ${cunits}"
Elastic Constant C46all = 0.776648406261056 GPa
print "Elastic Constant C56all = ${C56all} ${cunits}"
Elastic Constant C56all = 1.43951275975584 GPa

print " "
 
print "Cij tensor matrix"
Cij tensor matrix
print " "
 
print "${C11all}  ${C12all}  ${C13all}  ${C14all}  ${C15all}  ${C16all}"
86.917291467507  39.5831581630284  18.8218846359478  -2.80168012081647  0.292995931516675  -3.59163391070158
print "${C12all}  ${C22all}  ${C23all}  ${C24all}  ${C25all}  ${C26all}"
39.5831581630284  98.4989548479678  22.7769417890648  -2.01757324505737  3.84419947307555  -9.81516238494766
print "${C13all}  ${C23all}  ${C33all}  ${C34all}  ${C35all}  ${C36all}"
18.8218846359478  22.7769417890648  57.7799048131015  1.42873863083415  6.02711581169003  -6.78863050649825
print "${C14all}  ${C24all}  ${C34all}  ${C44all}  ${C45all}  ${C46all}"
-2.80168012081647  -2.01757324505737  1.42873863083415  20.7987632276568  -8.195826218645  0.776648406261056
print "${C15all}  ${C25all}  ${C35all}  ${C45all}  ${C55all}  ${C56all}"
0.292995931516675  3.84419947307555  6.02711581169003  -8.195826218645  11.2901748507043  1.43951275975584
print "${C16all}  ${C26all}  ${C36all}  ${C46all}  ${C56all}  ${C66all}"
-3.59163391070158  -9.81516238494766  -6.78863050649825  0.776648406261056  1.43951275975584  30.6227070836486

print "${C11all}  ${C12all}  ${C13all}  ${C14all}  ${C15all}  ${C16all}" file Cij.dat screen no
print "${C12all}  ${C22all}  ${C23all}  ${C24all}  ${C25all}  ${C26all}" append Cij.dat screen no
print "${C13all}  ${C23all}  ${C33all}  ${C34all}  ${C35all}  ${C36all}" append Cij.dat screen no
print "${C14all}  ${C24all}  ${C34all}  ${C44all}  ${C45all}  ${C46all}" append Cij.dat screen no
print "${C15all}  ${C25all}  ${C35all}  ${C45all}  ${C55all}  ${C56all}" append Cij.dat screen no
print "${C16all}  ${C26all}  ${C36all}  ${C46all}  ${C56all}  ${C66all}" append Cij.dat screen no

write_restart restart2
System init for write_restart ...
Generated 0 of 6 mixed pair_coeff terms from geometric mixing rule
Total wall time: 0:23:58
