ITEM: TIMESTEP
5526
ITEM: NUMBER OF ATOMS
88
ITEM: BOX BOUNDS xy xz yz pp pp pp
6.8701024253168264e-03 9.8166637069495568e+00 2.7190085649270075e+00
-3.3909564258930114e-01 6.2478558026049651e+00 3.0082524444787362e-01
-2.5895419897239336e-01 2.2664400555972300e+01 -2.7605481398432408e-01
ITEM: ATOMS id type x y z fx fy fz
62 2 2.7188 2.01402 1.50429 -0.494286 0.811895 0.448967
73 2 0.277471 0.1319 0.658401 0.0772998 0.968985 -0.683072
23 3 3.41678 1.55804 0.931014 -0.155529 -1.29803 -0.468304
64 2 4.2367 1.90624 1.29107 0.955598 0.73443 0.125448
80 2 3.72258 0.177864 1.71313 -0.179101 0.380775 -0.461301
76 2 0.953887 2.74157 2.23042 0.819402 -0.000264269 -0.140809
39 3 6.69823 1.11302 3.05812 -0.459201 -0.139794 0.149791
44 3 6.90613 0.868463 -0.0108596 -0.34426 -0.288952 1.11672
59 2 7.8585 2.14834 22.8708 0.453336 0.737289 0.000374636
51 3 1.90793 3.00965 2.20699 -0.791926 0.521422 0.843419
58 2 2.05531 4.22703 3.02745 0.25943 -0.514023 -0.183119
5 4 5.29935 4.63389 1.50863 0.874441 -0.128363 -1.26387
20 3 4.01077 5.50039 1.92678 -1.36474 0.310328 0.896896
28 3 5.11087 4.43921 -0.116447 0.349648 0.072814 1.6089
30 3 5.43982 3.14137 2.12569 0.131887 0.0510117 0.123773
38 3 6.57245 5.55007 2.0347 0.44284 -0.972118 0.136869
57 2 1.71033 3.50483 0.657402 -0.346169 -0.557115 -0.249906
87 1 2.00368 2.43054 4.79335 0.542493 -0.0708658 -0.245415
48 3 1.77906 -0.0609146 4.51814 0.0670856 0.133254 0.25861
6 4 5.65762 2.31156 3.60457 -0.823637 0.450472 -0.711678
24 3 4.23417 1.88417 4.13452 -0.175998 -0.989872 0.488702
3 4 3.42894 6.04791 3.38466 -1.1741 -1.03163 -0.354734
15 3 2.27796 4.86108 3.84511 0.492627 0.725634 -0.200347
36 3 6.44699 3.22866 4.63107 0.782403 0.388802 0.585367
85 1 6.76837 5.60038 4.76008 -0.278896 0.247767 -0.159397
11 4 2.25182 2.29764 7.83986 -0.513314 -0.370316 0.531385
45 3 0.976076 1.70834 7.00933 0.422435 0.19663 0.605176
55 3 3.2839 1.05435 8.34414 -0.205621 0.270438 -0.0260661
29 3 5.29745 0.177095 6.69482 -1.49696 -0.417428 1.00022
83 1 5.53607 2.56763 6.91419 0.231253 0.387735 0.0150122
33 3 5.65149 2.77794 9.77748 0.278509 0.215 -0.347731
50 3 1.87311 3.00086 9.37346 0.192097 -1.48632 -1.36484
18 3 3.02754 3.31804 6.88603 0.709273 0.235377 -0.457223
81 1 3.42256 5.64029 6.65966 0.35834 0.0533156 0.187316
31 3 5.79464 4.94817 7.00732 0.338562 0.842972 0.202899
19 3 3.18947 5.3044 9.11284 1.43334 0.974485 0.552729
9 4 6.78798 6.01734 7.75077 0.810744 -1.05177 -0.496191
43 3 7.40057 5.35615 9.17778 -0.369173 0.143247 -0.197654
75 2 3.61577 5.99975 9.71917 -0.652994 -0.828564 -0.275889
66 2 3.2929 1.40538 11.7174 -0.509415 0.0174243 0.00187139
61 2 3.73993 0.772438 10.3294 0.641569 0.331423 2.48355
26 3 4.06558 0.974385 11.3139 -0.181597 -0.406252 -2.51243
67 2 5.20241 2.03259 10.1941 -0.538915 -0.967721 0.0591886
78 2 1.36055 1.64938 10.2948 0.151199 -0.403279 1.04439
49 3 1.2725 0.973938 11.0648 -0.955617 1.00128 -1.07936
77 2 0.557975 1.42178 11.5864 0.425172 -0.553199 -0.181388
70 2 5.61851 3.36513 10.5872 0.232037 0.829296 -0.00666703
32 3 5.57865 4.20203 12.0211 0.191297 1.93023 0.277357
68 2 6.28607 4.9158 12.2135 -1.12703 -1.30423 -0.346272
69 2 5.74646 3.13402 12.8162 -0.110089 -1.08565 0.646037
1 4 8.67633 4.5508 9.77675 -0.393588 1.17221 -0.76804
14 3 8.7652 4.66509 11.3677 0.0658788 0.00149553 0.105107
12 4 2.50816 2.08525 14.6931 0.467395 -0.795903 0.696674
53 3 2.25678 2.78601 13.2022 0.905649 1.22546 0.551225
47 3 0.972907 1.52199 14.9685 -1.0533 0.272905 -0.336758
22 3 3.12126 2.90989 15.9543 -0.267149 -0.174782 -1.63548
56 3 3.36344 0.695577 14.4132 -0.0725308 0.716774 -0.338549
65 2 4.99096 1.64048 13.2152 0.386176 0.112192 -0.195894
35 3 5.81513 2.14843 13.4146 0.241771 0.528097 0.0071477
13 3 5.40395 0.0136733 16.0018 1.04301 0.0940262 0.169178
71 2 7.15437 1.74453 14.1112 0.160264 -0.336199 1.21253
21 3 3.70864 5.06585 13.4791 -0.342811 -0.271786 -1.13932
63 2 4.48565 4.78936 12.7571 -0.0299864 -0.238725 0.72865
37 3 6.13274 4.63405 15.6965 -0.643665 0.184785 0.278077
82 1 3.65783 5.3286 16.0371 0.32503 0.134451 0.317506
2 4 2.2675 4.44023 12.933 0.393364 -0.594719 0.341664
10 4 7.02111 5.76758 14.9795 -0.260463 -0.637768 0.0252121
46 3 7.77396 5.12521 13.6346 0.0464233 0.298959 0.174289
52 3 2.26796 -0.0498456 18.2512 -0.189909 0.605624 -0.089004
88 1 2.65677 2.53397 18.2601 -0.25505 -0.611078 -0.359694
84 1 5.67325 2.41469 16.1279 0.109525 -0.135518 -0.0972383
8 4 6.1313 2.16364 19.2175 0.208605 -0.93925 -1.1642
27 3 4.818 1.73056 18.3167 1.05531 0.0750175 0.375833
41 3 7.15273 3.06099 18.3132 -0.312285 -0.287603 0.0836564
17 3 2.84774 4.83726 18.4401 -0.849579 -0.540054 -0.377958
4 4 3.75607 5.88617 19.2421 1.63359 -0.0417514 0.245607
86 1 7.34196 5.50574 18.0017 -0.586189 0.113435 0.5509
54 3 2.85787 2.03768 20.5288 -0.897384 0.118836 0.808072
79 2 2.38316 2.33093 21.372 0.289017 0.114217 -0.357958
60 2 3.74682 2.41825 20.5817 0.757942 0.0901211 0.309023
34 3 5.57324 3.01356 20.5087 -0.163432 -0.367334 0.637125
40 3 6.86428 0.763796 19.851 -0.691139 1.54 -0.442346
72 2 7.59752 0.277425 22.0848 0.203108 -0.491679 -0.76992
7 4 5.64063 4.44907 21.2554 -0.388522 0.646257 -1.06772
25 3 4.38041 5.3488 20.7399 -0.313391 -0.227657 -0.244918
42 3 6.99308 5.3023 20.8489 0.954917 -0.200626 0.061911
16 3 8.33194 3.04208 22.7012 -0.250889 -0.351633 -0.231646
74 2 7.8516 4.92468 21.1692 -0.701461 0.101219 -0.0400501
