ITEM: TIMESTEP
5532
ITEM: NUMBER OF ATOMS
104
ITEM: BOX BOUNDS xy xz yz pp pp pp
1.2136934726835769e-01 9.9517052609158956e+00 2.5812703214532755e+00
5.9276643284461361e-02 7.6797467950762819e+00 5.3770279418557232e-01
6.9359836857945112e-02 2.8353575821836593e+01 1.3860091398776779e+00
ITEM: ATOMS id type x y z fx fy fz
104 4 1.42307 2.55229 1.9456 -0.149392 0.171327 0.174562
67 3 7.4976 2.98628 1.31778 -0.824811 -0.990485 -0.0139654
75 4 7.87012 3.82532 1.05804 0.931448 0.986968 -0.377124
79 4 3.12116 2.34987 3.45768 -0.796502 -0.578176 -0.242493
73 4 4.43381 1.63142 28.3228 -0.404349 0.42437 -0.876566
29 3 5.41564 0.472438 1.30871 1.52072 -0.72037 1.27629
7 1 6.32051 3.60877 28.0671 -0.344502 0.0894899 0.0694004
47 3 4.91875 4.20748 1.25332 0.880271 -0.520437 0.145869
17 2 4.83914 4.30235 2.89281 -0.467902 1.70012 -0.0858134
90 4 4.17036 4.6492 0.780845 -0.684426 0.0457897 -0.0970391
38 3 3.50252 5.20142 3.29382 0.637321 -1.14793 -0.236112
97 4 5.92953 0.584353 2.17612 -0.96429 -0.0410026 -1.25107
80 4 8.78888 5.84811 0.751674 -0.443513 -0.00918294 -0.0935998
99 4 6.71593 5.55254 2.83198 -0.0840574 -0.0783192 0.322903
10 1 1.80692 2.42034 6.03631 -0.072335 -0.499732 -0.17554
71 3 2.16601 1.99156 3.44138 1.20306 -2.42965 -0.464513
82 4 2.2775 0.945342 3.27062 -0.29222 2.79984 0.676572
18 2 5.32509 2.057 4.97117 0.609872 -0.795183 -1.66202
30 3 6.17138 0.792229 4.21828 -1.03821 0.199922 0.477548
41 3 4.11579 1.55824 5.91372 -0.802434 -0.239338 -0.478492
49 3 4.7925 2.85109 3.57511 -0.320459 -0.321534 0.353929
57 3 6.23664 2.98182 5.86103 0.914444 1.07266 0.502422
14 2 2.84025 5.63365 4.74925 1.30864 2.9068 -0.289103
27 3 8.56704 4.66613 5.47979 -0.70128 -1.20594 0.629288
56 3 6.08911 5.23156 3.52856 0.0234853 -0.127958 -0.930294
43 3 3.98618 6.19326 5.79426 0.394983 -0.411315 -0.283176
8 1 6.43185 5.52659 5.92399 -0.511246 -0.812738 0.63069
22 2 1.49771 2.65681 9.10061 1.21988 0.00306266 -0.939596
33 3 2.81927 3.13024 8.17888 -1.46113 -0.00618196 0.489593
6 1 5.04781 2.26132 7.93597 -0.0732547 0.4297 0.400926
64 3 7.28944 1.65256 8.26151 -0.0185498 -0.0879103 -0.235411
3 1 3.15974 5.59098 7.87206 0.00335939 -0.226599 -0.227079
51 3 5.25832 4.76119 8.26841 -0.33798 0.156724 -0.210732
20 2 6.53414 5.23213 9.09873 0.790736 0.912555 -0.165689
24 3 7.6251 6.01099 8.15806 -1.08273 0.324719 0.206824
72 3 2.08455 1.94922 10.4618 -1.01514 0.257357 0.0969173
11 2 3.44622 1.37951 11.0333 0.0030777 -0.854209 0.692216
50 3 4.67194 2.30811 10.5163 -0.966762 0.881332 -1.86026
96 4 5.45571 2.15869 11.0068 2.05307 -0.208173 1.23152
61 3 6.53352 0.952789 12.276 0.223395 -0.231861 -1.12404
83 4 9.25546 6.62531 11.4237 0.130752 0.353004 1.2122
87 4 2.21274 4.87932 10.1597 -0.175908 0.0892228 0.278625
35 3 3.06471 5.34485 10.3351 -0.479311 -0.291578 -0.0474231
59 3 6.27477 6.05174 10.5685 -0.221676 0.274767 -0.164634
91 4 3.69462 4.5977 10.3536 0.374678 0.0282244 0.159229
76 4 6.53941 5.07259 12.0479 0.463579 0.0277582 0.208416
68 3 7.26644 3.89462 9.67678 1.0543 -0.849679 0.738174
23 3 3.37409 1.57044 12.6761 0.0371532 -0.45795 -0.0486983
85 4 3.43888 2.5284 12.9629 0.212476 -0.238491 0.00300362
48 3 4.55756 2.27763 15.3182 1.43375 0.803908 -0.31283
92 4 4.25264 3.24654 14.6972 0.721276 -0.763099 -0.710483
101 4 7.35377 1.49027 12.3407 -0.166527 -0.172962 0.0114298
31 3 2.61728 5.75941 15.373 -0.183216 0.32445 1.24371
37 3 4.19558 3.91049 13.7518 -0.458863 0.575387 0.700198
81 4 3.54413 4.47413 14.2123 -0.289075 0.735078 -0.493144
102 4 6.01112 4.36277 13.2774 -0.578223 -0.367265 0.57
54 3 5.7252 5.74002 15.7079 0.54456 -0.475243 -0.895242
93 4 5.0982 5.14171 15.2525 -0.0277813 0.0127525 -0.380033
65 3 6.81614 4.81451 12.9741 0.0620714 0.0418599 -0.975146
1 1 7.60697 6.67847 14.135 0.100887 -0.922886 0.215257
95 4 5.2105 5.98411 16.4777 -0.278397 0.627497 1.13785
45 3 3.8069 2.0493 18.4196 0.723611 0.601042 0.233825
74 4 3.86662 2.34781 15.9394 -1.55884 -0.0863961 1.72862
100 4 5.86762 2.60769 16.8081 -0.202374 0.0130079 -0.39878
63 3 6.61359 2.76005 17.4211 0.960629 0.940129 0.223322
103 4 7.26659 3.35129 16.9576 -0.753393 -0.323403 0.443265
89 4 1.09731 1.38982 17.8207 -0.346647 -0.899431 -0.225114
34 3 2.82026 4.21477 17.5942 -0.225837 0.658811 -0.141259
40 3 3.75903 6.61771 17.89 0.3164 0.763003 -0.912597
13 2 2.55685 5.77889 17.0078 0.98411 -1.35372 0.00856313
26 3 7.8637 6.33826 17.5696 -0.972717 0.255081 0.302496
12 2 7.24916 6.98454 18.9898 -1.25344 -1.8383 0.228125
15 2 3.13262 3.43922 19.0555 -1.82347 0.233717 0.82848
70 3 1.75482 2.92395 19.8434 0.54953 0.188408 -0.341836
4 1 2.6776 3.48814 22.1857 0.212835 0.301883 -0.618018
9 1 6.06396 3.48135 20.2115 1.05205 0.652378 -0.367834
42 3 3.96155 4.34711 20.1685 -0.491295 -1.22997 -1.71016
5 1 4.12163 6.79261 20.2609 -0.325389 -0.465492 -0.490453
60 3 6.19824 5.97265 19.8048 1.64467 0.736798 -0.82329
28 3 5.84949 1.1612 20.0185 0.429598 0.482493 0.0117016
2 1 7.55199 6.71576 22.029 -0.288584 -0.39184 0.570091
32 3 2.61903 2.975 24.6489 -0.408295 -0.0708031 0.451126
86 4 3.42302 2.55167 24.9931 0.410103 0.0505544 -0.191538
21 2 1.20309 2.26524 25.2541 -0.761683 2.30934 -1.45683
53 3 4.95453 2.79325 22.4557 0.734423 0.730118 0.642813
19 2 6.0059 3.80042 23.2508 -0.880551 -1.17949 -1.29912
62 3 6.66873 3.16327 24.5668 1.22787 -0.930761 1.49386
36 3 3.04071 5.85186 22.3427 0.132488 -0.0337325 0.0267326
44 3 3.71276 7.0301 24.6195 0.159274 -1.16537 -0.342578
52 3 2.60168 1.16345 22.3024 0.00908069 -0.574428 0.248738
16 2 4.31983 6.35051 23.1836 -0.967849 0.617932 0.695727
55 3 5.21876 5.13105 23.8602 -0.363713 0.225368 -0.136109
66 3 7.10453 4.26828 22.1751 0.722878 0.442895 -0.221334
25 3 7.73821 6.54773 24.5223 -0.15857 0.288518 -0.347813
77 4 8.67942 6.5861 24.8127 -0.27322 -0.100273 -0.00405205
69 3 1.05452 2.34714 26.8172 0.265674 -0.0014845 1.09277
84 4 3.50979 7.13589 27.6891 -0.7971 -0.710621 0.810924
88 4 3.50586 2.3009 27.1271 -0.548773 0.0214074 0.465378
46 3 4.39665 2.10046 27.4422 0.803625 -0.451182 0.60868
39 3 2.60521 5.06425 0.0833494 0.50137 1.37043 -0.493311
58 3 4.7455 4.68554 26.4726 0.486185 0.271039 -1.07111
94 4 3.99374 5.19962 26.8025 -0.319973 0.226912 0.424571
98 4 4.80308 4.94536 25.48 0.150117 -0.488435 1.28772
78 4 7.19747 6.00091 25.1058 0.108409 -0.25939 0.257406
