ITEM: TIMESTEP
50152
ITEM: NUMBER OF ATOMS
104
ITEM: BOX BOUNDS xy xz yz pp pp pp
-1.2948152512985533e-02 1.0125868114590677e+01 2.6368068484743339e+00
-6.6051635712374157e-03 7.7494052666722988e+00 5.2201162105797783e-01
-2.1070649409400843e-02 2.8444006308104079e+01 1.3897858046179719e+00
ITEM: ATOMS id type x y z fx fy fz
1 1 7.48069 6.50028 14.1017 -0.00999913 0.0053706 0.00479256
2 1 7.32946 6.80631 22.2251 0.00296148 0.0046876 0.00291359
3 1 3.14978 5.4348 7.91459 0.000473297 0.00684862 -0.00403976
4 1 2.45967 3.6138 22.3527 0.000367766 -0.000763085 0.000164205
5 1 3.77095 6.77909 20.267 0.00174157 -0.000472513 -0.000301693
6 1 5.22508 2.28033 7.92722 0.00760841 0.00101915 -9.69536e-05
7 1 6.39166 4.06249 28.2655 0.00980784 0.00869617 -0.000205812
8 1 6.54651 5.41024 5.85208 0.00629298 0.00461623 -0.00652751
9 1 6.05553 3.65822 20.2569 -0.00149322 -0.00224843 0.00824479
10 1 1.75066 2.25555 5.94815 0.00587381 0.00236575 0.00276322
11 2 3.60075 1.23855 10.9519 0.00191449 -0.00127058 -0.00474125
12 2 7.1214 7.09424 19.1826 -0.00409213 0.00304809 0.00366921
13 2 9.04399 5.69501 17.1537 -0.0096967 -0.0023825 0.00399811
14 2 2.89263 5.69276 4.8039 -7.0856e-05 0.000146607 -0.000354649
15 2 2.69772 3.36264 19.2441 -0.00040721 0.000934942 0.00453579
16 2 4.00843 6.5726 23.3555 -0.00170146 -0.00229562 0.000842455
17 2 4.88841 4.29146 2.78224 -0.00150175 -0.00626489 0.00332724
18 2 5.46801 1.96285 4.82733 0.00347202 -0.00330155 0.00382786
19 2 5.82416 3.94371 23.3377 -0.00111784 0.00160952 -0.00451598
20 2 6.82866 5.21412 8.99058 0.00418569 0.00137191 -0.00726835
21 2 7.76785 2.56088 25.4211 -0.00247719 -0.00419069 -0.00489236
22 2 1.60137 2.58655 8.99129 0.00527799 0.00357376 -0.00291068
23 3 3.66829 1.28165 12.5418 -0.00143037 -0.00310456 -0.00255037
24 3 7.73453 6.17031 8.04423 0.00347542 0.00202089 -0.001702
25 3 7.62747 7.04929 24.776 -0.00259937 0.00158976 0.000761368
26 3 7.71897 6.51076 17.723 -0.00324924 0.00103242 0.00243527
27 3 8.85088 4.71841 5.60427 0.000446434 -3.70446e-05 -0.000157035
28 3 5.70186 1.19096 20.1752 -0.002119 0.00106981 0.00176774
29 3 5.77124 0.835189 1.35585 -0.00474838 0.00330259 -0.0020498
30 3 6.40137 0.661265 4.23902 -0.00225355 -0.0026518 -0.00153215
31 3 8.998 5.59558 15.5739 -0.00826799 -0.00512915 0.00266936
32 3 2.14185 3.41748 24.8331 0.000245775 -0.00549592 -0.00217873
33 3 2.85954 3.03945 8.04204 0.00332295 0.00195037 -0.000751027
34 3 2.17816 4.18553 17.8563 -0.00385281 0.000192902 0.00448178
35 3 3.45325 5.35498 10.4266 -0.000803999 0.00203197 -0.00271922
36 3 2.67039 6.02128 22.6069 -0.000569025 -0.00131037 7.04412e-05
37 3 3.58787 3.7612 13.0633 -0.00246418 -0.00146798 -0.00404523
38 3 3.48038 4.91032 3.42634 0.000263534 -0.00261114 0.00203337
39 3 3.3287 6.55773 28.3986 -0.00336769 0.00668536 0.012437
40 3 3.43066 6.50563 17.7734 -0.00476467 -0.00146584 0.000361142
41 3 4.12206 1.43636 5.56737 0.0010959 -0.00018934 0.00181361
42 3 3.6207 4.30692 20.1779 0.00214381 -0.000231465 0.000523399
43 3 4.13179 6.18228 5.74732 -0.000449449 0.00302492 -0.0016876
44 3 3.56885 7.40572 24.7452 -0.00321239 -0.00385062 0.00100409
45 3 3.58498 2.07069 18.6457 -0.00119761 0.00131698 0.000994367
46 3 4.72754 2.51027 27.2861 -0.000678778 0.00939968 -0.00823032
47 3 4.86116 4.22256 1.20432 -0.00232916 -0.00693953 0.00227083
48 3 4.01086 2.00932 15.6906 0.00163589 0.000719932 0.00258845
49 3 5.10289 2.75107 3.38963 0.00163551 -0.00227759 0.00259714
50 3 4.82325 2.25517 10.3626 0.00310465 -0.00361882 -0.00321483
51 3 5.5042 4.67493 8.20253 0.003312 0.000190794 -0.00527109
52 3 2.28986 1.12825 22.3845 -0.000548471 0.000601654 0.00287192
53 3 4.81721 2.91115 22.5998 -0.00050365 0.000986694 -0.00303298
54 3 5.67501 5.29421 15.3193 0.000423134 0.00297486 0.000790511
55 3 4.92552 5.26172 23.8633 -0.00152645 -0.00159199 -0.000172632
56 3 6.13356 5.28832 3.34481 -0.00186182 -0.00152225 0.000491398
57 3 6.37272 2.89764 5.79832 0.00371739 -0.00214627 0.000259233
58 3 5.49922 5.61648 26.6964 0.00120943 -0.000675608 0.000142679
59 3 6.38462 6.0266 10.4061 -0.000367163 0.000448124 -0.00528198
60 3 6.1516 6.03542 19.9304 -0.00225142 0.00192389 0.0019544
61 3 6.75428 2.07482 12.234 0.00314506 -0.00608128 -0.00833623
62 3 6.45107 3.31498 24.7548 0.000692952 -0.0020468 -0.00509327
63 3 6.41314 3.34504 17.782 0.00172877 -0.00528168 0.00826167
64 3 7.58507 1.57061 8.22128 0.00242622 0.00152334 -0.000359247
65 3 8.04931 4.4106 12.5978 -0.00201148 -0.00555492 -0.00340526
66 3 7.05672 4.37522 22.3537 -0.000419399 0.00270473 -0.00141822
67 3 7.84854 3.59018 0.71442 0.000761699 -0.00177126 0.00802881
68 3 7.77159 3.93342 9.60437 0.00320624 0.0023907 -0.00338071
69 3 7.59012 2.48911 26.9954 -0.00227655 0.000405611 -0.00289192
70 3 1.37062 2.79179 19.9951 -0.000163338 -0.000408854 0.00217483
71 3 1.97262 2.37984 3.39691 0.00293684 -0.00221033 0.00414558
72 3 2.17218 1.85705 10.3824 0.00268004 0.00230646 -0.0019393
73 4 5.38145 1.88999 26.885 4.54606e-05 0.000550018 -0.000283218
74 4 4.25288 1.70473 16.5926 1.65046e-05 -0.000180061 0.000134397
75 4 8.55496 4.22569 0.317832 8.7709e-05 -9.66872e-05 0.000627228
76 4 2.02762 4.09714 12.5476 -0.00011252 -0.000199226 -0.000363913
77 4 8.5753 6.77575 24.8034 -0.00020585 -6.63002e-06 0.000119409
78 4 5.07961 1.66578 24.7621 -2.94069e-05 9.45968e-05 0.000154584
79 4 2.53165 3.19134 3.51417 0.000227194 -0.000161305 0.000165591
80 4 6.42036 0.106759 1.22385 -0.000214246 0.00024914 -0.000120799
81 4 3.1143 4.0718 13.8647 1.73325e-05 9.71744e-05 -0.000198946
82 4 2.64478 1.68334 3.26728 0.000118758 -0.000213577 0.000263406
83 4 7.57464 1.62116 11.9342 0.000290465 -0.000361024 -0.000274297
84 4 3.38771 7.43138 27.8636 3.3016e-05 0.000129229 0.000342742
85 4 3.58349 2.72633 13.0049 -0.00020818 -5.49432e-05 -0.000158238
86 4 2.80732 3.63233 25.5166 -4.31218e-05 -0.000556998 -3.37515e-05
87 4 3.66529 4.6967 11.1129 -0.000109742 6.62089e-05 -0.00021213
88 4 4.32847 1.9969 28.0405 -0.00018459 0.000707053 -0.000513191
89 4 0.696881 1.1026 17.6119 -0.000241539 -0.000105995 -9.6063e-05
90 4 3.64937 4.85891 0.45056 -0.000112368 0.000111329 0.000396243
91 4 4.34275 5.72629 10.1949 -9.39507e-06 -1.77892e-05 -0.00023913
92 4 3.23243 2.57854 15.7982 0.000199921 0.000153758 0.00022378
93 4 5.06434 4.74878 14.7641 -9.12979e-05 0.00017678 0.000191167
94 4 4.57508 5.87702 26.9304 -0.000127626 -0.000525393 -0.000485035
95 4 5.10158 5.85912 15.8778 9.98538e-05 -2.63926e-05 0.000360606
96 4 5.55023 2.26295 11.0593 0.000336422 -0.000432192 -0.000336982
97 4 5.83347 1.18568 2.27832 -0.000409275 6.27721e-05 -7.43575e-05
98 4 5.66962 5.80894 25.7568 0.000296676 -0.000247857 -7.48028e-05
99 4 6.76227 5.43182 2.61061 -1.49195e-06 -0.000325815 9.65236e-05
100 4 5.98909 3.8698 17.072 -0.000353237 -0.000519007 0.000657491
101 4 7.12696 2.95075 12.5253 5.95713e-05 -0.00030685 -0.000500605
102 4 7.79895 4.56377 11.6618 -0.000184312 -2.55458e-05 -0.000147977
103 4 7.36248 3.65155 17.8004 -7.03346e-06 5.92858e-05 0.000255447
104 4 8.2649 3.15311 1.48755 7.41253e-05 -0.000314854 0.000371388
