ITEM: TIMESTEP
95
ITEM: NUMBER OF ATOMS
15
ITEM: BOX BOUNDS pp pp pp
0.0000000000000000e+00 1.0000000000000000e+02
0.0000000000000000e+00 1.0000000000000000e+02
0.0000000000000000e+00 1.0000000000000000e+02
ITEM: ATOMS id type x y z fx fy fz
4 1 49.233 50.6435 48.9841 0.052554 -0.000466613 0.0278858
5 1 48.4265 50.4268 50.1171 0.0722388 -0.00782444 0.0352647
12 2 48.7732 50.893 48.0202 -0.0500549 0.0271944 -0.0106169
3 1 50.6354 50.5415 49.0829 0.00193147 0.00176687 0.0363322
11 2 51.2563 50.7122 48.1939 -0.00533858 -0.0300542 -0.00840941
10 2 53.2666 50.4928 49.5232 0.00251141 0.00421086 -0.0119539
6 1 49.0336 50.1069 51.3488 0.0164091 -0.0038175 0.0242516
14 2 48.4147 49.9366 52.2384 0.0085828 0.00633626 -0.0624276
15 2 50.8999 49.7572 52.4038 0.0027496 -0.023378 0.0426639
9 2 53.057 49.0309 50.5305 -0.0205453 0.0255458 0.00300215
13 2 47.3355 50.5072 50.0434 -0.0504966 -0.0187382 -0.0158558
2 1 51.2548 50.2241 50.3101 -0.0119516 0.0149399 0.000355905
7 1 50.4341 50.0066 51.441 -0.0445785 0.0325244 -0.0598171
1 1 52.7632 50.0917 50.4206 0.00590529 -0.0590725 -0.0236166
8 2 53.1451 50.6391 51.3015 0.0200744 0.0308365 0.0229577
