ITEM: TIMESTEP
5229
ITEM: NUMBER OF ATOMS
104
ITEM: BOX BOUNDS xy xz yz pp pp pp
0.0000000000000000e+00 1.0124796696170293e+01 2.6303552510961419e+00
0.0000000000000000e+00 7.7458211072710021e+00 5.4033995252876998e-01
0.0000000000000000e+00 2.8422935658694676e+01 1.3928068087879120e+00
ITEM: ATOMS id type x y z fx fy fz
1 1 7.73759 6.59394 13.9571 0.261911 -0.501381 0.313059
2 1 7.58106 6.27166 21.9036 -0.365268 0.234724 0.220192
3 1 3.37312 5.98183 8.19082 -0.199489 0.206422 -0.386599
4 1 2.55666 3.00912 22.094 0.219404 0.0323797 0.297373
5 1 4.08513 6.35447 19.9662 -0.13968 -0.0130628 -0.0198546
6 1 5.44127 2.71947 8.03397 -0.410755 0.115791 -0.267695
7 1 4.73422 2.58238 0.271053 -0.182238 -0.761135 -0.160663
8 1 6.51039 6.03123 6.05918 0.696717 -0.376736 -0.179597
9 1 6.33687 3.24428 19.9185 -0.0242676 0.234284 0.13951
10 1 2.08677 2.90994 5.92101 -0.381909 0.249394 0.0216212
11 2 3.73351 1.53071 11.0764 0.437279 0.789378 1.97174
12 2 7.41909 6.68276 18.8419 0.433502 0.235523 -0.755609
13 2 2.40525 5.21623 16.8355 0.751308 -0.110644 -0.98358
14 2 2.95341 6.33252 4.88681 0.553458 -1.67382 1.00467
15 2 3.13812 2.94973 18.8733 -1.72353 0.305888 -0.212786
16 2 4.05853 5.9941 23.1396 -1.12088 -0.573778 0.444807
17 2 4.86542 4.84851 2.92166 0.447644 -2.07214 -1.15523
18 2 5.6858 2.59267 5.04849 -0.483853 -0.541425 -0.206506
19 2 5.77695 3.42404 23.2261 -0.0949117 -1.23278 -0.748803
20 2 7.06873 5.66246 9.03456 0.13358 0.734767 -0.326326
21 2 0.780093 2.04607 25.186 0.259906 -0.33691 -0.85579
22 2 1.82072 3.0599 9.10447 0.585445 0.308708 -0.692645
23 3 3.64461 1.43396 12.7043 -0.0928966 -0.177164 -1.67676
24 3 7.91524 6.67852 8.069 -0.213596 -0.679162 0.841622
25 3 7.32169 6.37033 24.3724 -0.290978 -0.498524 -0.0378669
26 3 8.09839 5.90008 17.5382 -2.03629 1.09097 0.885103
27 3 8.8499 5.27166 5.49969 0.0892316 0.0746809 0.0719968
28 3 8.6342 7.20338 19.8075 -0.169618 0.323897 0.167607
29 3 5.41935 0.595412 1.82411 0.163592 0.585398 0.661021
30 3 6.54639 1.30646 4.31132 -1.38218 1.65832 -0.409013
31 3 2.38203 5.331 15.2331 -0.630708 -0.471456 0.238665
32 3 2.09171 3.01573 24.6565 -0.298131 -0.495988 0.114377
33 3 3.06613 3.45805 8.05278 -1.12809 0.263999 1.13317
34 3 2.42436 3.68418 17.5189 0.385617 0.275532 -0.163772
35 3 3.91425 5.89777 10.7507 1.36014 -2.06174 0.0954081
36 3 2.75833 5.49601 22.288 -0.107792 -0.413 -0.259866
37 3 3.76129 3.8462 13.5769 -0.24698 0.521837 0.516035
38 3 3.66168 5.70272 3.50424 -1.48004 0.96759 0.526826
39 3 2.39404 4.99256 0.0578541 -0.163767 -0.86109 1.35396
40 3 3.64225 6.20546 17.347 0.163128 -0.0854453 1.30389
41 3 4.3999 2.05931 5.94827 0.483454 -0.296367 -0.781401
42 3 4.04534 4.0159 19.6861 0.137846 -0.775967 0.168899
43 3 1.46233 0.395686 6.00666 0.551079 -0.103184 -0.170526
44 3 3.5167 6.82992 24.5027 0.00271963 1.32591 0.814038
45 3 3.96999 1.70438 18.145 0.884708 -1.22358 0.589605
46 3 2.8456 0.825347 0.192733 -0.52583 1.45988 -0.844368
47 3 4.68752 4.44532 1.34273 0.0778092 0.630267 1.03945
48 3 4.66695 1.92789 15.3755 -0.51065 1.1778 1.43984
49 3 4.98414 3.42356 3.79326 -0.0634436 0.0190831 -0.342876
50 3 4.99427 2.51265 10.5241 -2.89265 0.441396 -1.39783
51 3 5.76886 5.09409 8.28165 -0.645053 0.154065 -0.502683
52 3 4.94824 6.92321 22.2061 1.01229 0.566889 -0.565611
53 3 4.81397 2.27903 22.5819 -0.130072 -0.0343624 -0.694382
54 3 5.95079 5.49826 15.1696 -0.0349284 0.149949 0.0419655
55 3 4.77811 4.59976 23.7445 -0.334853 1.70793 -0.0407168
56 3 6.15575 5.72004 3.31389 1.98829 1.25478 0.448545
57 3 6.70904 3.42938 5.96314 -0.410943 0.298017 -0.222895
58 3 4.53408 4.56654 26.5063 -0.0724796 -1.1997 1.10488
59 3 6.5188 6.36013 10.4666 0.14983 0.0620538 -0.229156
60 3 6.41354 5.71255 19.6663 0.167249 0.250889 0.142257
61 3 6.83624 1.2426 12.5248 -0.383826 -0.454284 -0.422617
62 3 6.35761 2.8184 24.6467 1.14156 -0.829715 0.993418
63 3 6.48992 3.47888 17.3053 -0.44672 1.47256 1.15349
64 3 7.61135 2.19132 8.40705 0.68177 -0.649069 0.422076
65 3 8.1335 4.8448 12.4835 -0.349172 0.0824723 0.126584
66 3 7.00002 3.86765 22.2562 0.263709 0.239845 -0.804563
67 3 7.291 4.5201 27.6737 -2.2355 -1.36361 -0.549417
68 3 8.03733 4.49847 9.66254 1.05937 -1.00788 0.164792
69 3 7.77898 2.00727 26.7875 0.144196 0.214919 0.113037
70 3 1.8898 2.33411 19.8002 0.580511 0.663197 -0.180591
71 3 2.27896 2.3278 3.44356 0.649451 -0.354687 0.407593
72 3 2.43881 2.25649 10.433 -0.727114 0.72464 -0.445792
73 4 5.47611 6.2883 0.567952 -0.314696 -0.781285 0.194522
74 4 4.30011 1.82972 16.3043 0.167048 -0.136692 -0.442936
75 4 7.86182 5.16048 28.0352 2.07067 1.32002 0.635728
76 4 1.76136 4.08181 12.4192 0.667488 -0.399517 0.277464
77 4 8.18005 6.12228 24.7368 0.531301 -0.340176 0.202352
78 4 7.34577 7.33475 24.4153 -0.151583 0.813911 -0.133541
79 4 2.21847 1.34406 3.35939 0.00863072 0.491074 -0.104122
80 4 8.50025 6.21695 1.33517 0.402284 -0.177432 -0.120916
81 4 3.04234 4.29116 14.1525 0.414321 -0.0704582 -0.121307
82 4 3.25933 2.49676 3.48771 -0.37186 0.0436514 -0.237787
83 4 0.260382 0.532666 11.9305 0.388247 0.359967 0.282856
84 4 3.19596 7.13604 27.9218 0.104312 0.806824 -0.949316
85 4 3.53668 2.90294 13.2853 0.121609 -0.0438419 -0.0519961
86 4 2.7107 3.26967 25.3816 -0.153713 -0.131953 -0.537315
87 4 4.00366 4.95525 11.1143 -0.927795 0.965497 -0.181314
88 4 2.51032 2.3524 28.1455 0.981692 -0.477058 0.464206
89 4 4.38285 6.22559 16.7394 0.768248 0.067762 -0.562661
90 4 3.22415 4.77972 0.609115 -0.417092 0.255118 -0.170172
91 4 4.93852 5.96703 10.6223 -0.956387 0.741936 0.0678226
92 4 4.24558 2.77976 15.0428 0.445594 -0.528734 -0.280687
93 4 5.2222 5.06071 14.675 0.0678936 -0.244448 0.0385142
94 4 5.18286 4.45298 25.8056 0.565705 -0.286161 -0.784594
95 4 6.27821 4.88999 15.8717 -0.320372 -0.2006 -0.00949674
96 4 5.84557 2.31131 10.8132 2.86013 -0.72098 1.42273
97 4 5.98928 0.883112 2.61125 -0.21457 -0.320057 -0.642807
98 4 4.16714 5.42193 26.3295 -0.772077 1.33082 -0.2022
99 4 6.97534 6.08105 2.83197 -0.941865 -0.449974 -0.0613022
100 4 6.16649 2.70935 16.8636 -0.443395 -1.48971 -0.965962
101 4 7.59077 1.68222 12.9372 0.464168 0.0538579 0.0102755
102 4 7.81279 4.94579 11.5771 -0.346097 0.0460113 -0.743298
103 4 7.45419 3.46411 17.3135 1.14535 -0.256405 -0.20752
104 4 7.69486 3.72424 27.2536 0.370181 -0.117185 0.11603
