ITEM: TIMESTEP
10039
ITEM: NUMBER OF ATOMS
62
ITEM: BOX BOUNDS xy xz yz pp pp pp
-3.1700976274922948e-01 1.1104845891537915e+01 -1.7387348287238188e-01
-1.9145701205917576e+00 7.4445696537008521e+00 -1.5325861895388601e-01
8.5374853037496479e-03 9.3661611094123174e+00 -1.9213560282084166e+00
ITEM: ATOMS id type x y z fx fy fz
1 1 -0.146774 -0.587892 4.6367 -0.461507 -0.238377 -0.071327
2 1 1.32965 2.85009 1.14074 0.212887 -0.615107 -0.738493
3 1 1.47304 6.50859 1.13012 -0.480748 0.373294 -0.236728
4 1 4.0153 -0.960433 8.24118 -0.796685 0.0436489 0.759127
5 1 3.8536 2.76059 8.16952 -0.856385 -0.425028 -0.239699
6 1 5.55173 2.54647 4.72822 -1.08846 -0.367093 -0.575671
7 1 6.99656 2.82022 1.25902 0.331904 -0.387756 -0.274782
8 1 6.79289 6.60429 0.980739 0.158165 -0.214092 0.134012
9 1 9.35619 -0.926793 8.18458 0.0890433 0.092569 0.0302655
10 1 9.4131 2.75355 8.47297 0.32442 -0.302899 -0.50338
11 4 0.804778 4.80347 7.38412 0.344412 -0.685665 0.623037
12 4 1.15626 0.460474 7.16002 0.678666 -0.41619 1.1048
13 4 1.84437 2.67834 5.29275 -0.705732 -0.797298 0.150802
14 4 3.20606 6.45336 4.01898 0.348966 -0.0389654 0.10485
15 4 4.18312 4.39454 1.89263 1.456 -0.309794 0.316958
16 4 4.13691 1.27217 2.2303 1.93945 -0.479767 -0.561026
17 4 6.67947 1.21539 7.28037 0.0489764 -1.39733 0.657348
18 4 6.44382 4.3193 7.31535 2.24487 1.59126 1.10182
19 4 7.42795 -0.962357 5.2857 -0.191344 -0.400914 -0.711941
20 4 8.99533 2.80918 4.14343 -1.6396 -0.370253 -2.22311
21 4 9.69967 4.92393 2.0819 -1.49695 0.249602 1.3679
22 4 9.82019 0.671786 2.02229 0.0150092 0.807487 -0.248447
23 3 10.5439 4.63273 8.26008 1.0466 0.330047 -0.579656
24 3 -0.108501 0.828852 8.08244 -0.636974 0.201424 -0.147514
25 3 11.2335 0.957458 1.31625 -0.326972 -0.304911 -0.0145407
26 3 -0.0309472 4.62664 1.36296 1.28108 0.118597 -0.887125
27 3 1.03893 -1.17217 6.63927 -0.77847 1.31615 -0.348593
28 3 0.85735 3.66666 6.16786 -0.743909 0.180467 -0.082958
29 3 1.15532 1.10258 5.61495 0.541505 1.65548 -0.462208
30 3 1.49248 3.05406 3.69069 0.236583 -1.15759 0.265767
31 3 1.65584 6.26252 3.64645 0.528918 -0.0313959 -0.363491
32 3 2.49272 0.751821 8.01657 -0.183552 0.0756563 -0.271059
33 3 2.11097 4.68248 8.29903 0.954711 -0.19265 0.261049
34 3 2.92101 4.68003 0.943098 0.00249703 -0.8838 0.451394
35 3 2.93518 1.01916 1.2607 -1.67308 0.0694861 -0.441454
36 3 3.35719 2.80703 5.70239 1.01773 -0.0495522 0.468843
37 3 3.75271 -1.25336 5.59676 -0.725326 0.0246351 0.660518
38 3 4.07889 0.504672 3.74178 -0.182075 0.769443 -0.974827
39 3 4.22584 5.4655 3.13382 -0.35186 0.350524 0.880608
40 3 4.28918 2.88224 2.71242 -0.183777 0.355239 -0.514258
41 3 5.32737 0.866739 8.06467 0.0654559 -0.42299 0.213408
42 3 5.17541 4.65623 8.24467 0.115296 -0.556341 0.00879546
43 3 5.61134 4.5491 1.14156 -0.856924 0.385263 -0.223629
44 3 5.45344 0.861426 1.3129 0.145649 0.638562 1.04199
45 3 6.37541 2.75282 6.78144 0.135534 1.44788 -0.14496
46 3 6.71497 0.463298 5.77404 0.0265125 0.369173 0.253431
47 3 6.25933 5.27294 5.9626 0.261151 0.0227013 -0.549158
48 3 6.86092 6.42046 3.61942 -0.154082 -0.203277 1.02719
49 3 7.41475 2.99998 3.67435 1.35091 -1.26799 0.0720707
50 3 8.01207 1.02543 8.15848 -0.743515 -0.323996 -0.400831
51 3 7.85545 4.63104 8.14957 -2.27396 -0.891171 -0.731341
52 3 8.46386 4.64176 1.07215 -0.022788 0.119015 0.969808
53 3 8.54731 0.998316 1.0607 0.198665 -0.0411231 0.663004
54 3 8.94385 -1.101 5.77646 -0.13269 0.449833 -0.483567
55 3 9.18851 2.83761 5.74 -0.646528 -0.643327 1.10929
56 3 9.87583 1.45014 3.5353 -1.41518 0.697282 0.190919
57 3 9.7137 4.15088 3.57866 0.717086 1.11637 -1.06162
58 3 9.58546 6.54445 2.55365 0.445579 -0.768605 0.278445
59 2 1.41083 4.01088 3.64997 -0.235777 1.20741 -0.0715292
60 2 4.49181 5.92387 5.77483 0.857745 -0.424035 -0.352782
61 2 5.91199 6.10595 3.54859 0.470095 0.0512026 -0.0468034
62 2 10.0836 3.14169 5.90235 1.39279 0.499574 0.37106
